130
 Atoms. Timestep: 0
Cu 12.7633 1.47378 10
Cu 2.55266 1.47378 10
Cu 5.10531 1.47378 10
Cu 7.65797 1.47378 10
Cu 10.2106 1.47378 10
Cu 14.0396 3.68444 10
Cu 3.82898 3.68444 10
Cu 6.38164 3.68444 10
Cu 8.93429 3.68444 10
Cu 11.4869 3.68444 10
Cu 15.3159 5.89511 10
Cu 5.10531 5.89511 10
Cu 7.65797 5.89511 10
Cu 10.2106 5.89511 10
Cu 12.7633 5.89511 10
Cu 16.5923 8.10577 10
Cu 6.38164 8.10577 10
Cu 8.93429 8.10577 10
Cu 11.4869 8.10577 10
Cu 14.0396 8.10577 10
Cu 17.8686 10.3164 10
Cu 7.65797 10.3164 10
Cu 10.2106 10.3164 10
Cu 12.7633 10.3164 10
Cu 15.3159 10.3164 10
Cu 0 0 12.0842
Cu 2.55266 0 12.0842
Cu 5.10531 0 12.0842
Cu 7.65797 0 12.0842
Cu 10.2106 0 12.0842
Cu 1.27633 2.21066 12.0842
Cu 3.82898 2.21066 12.0842
Cu 6.38164 2.21066 12.0842
Cu 8.93429 2.21066 12.0842
Cu 11.4869 2.21066 12.0842
Cu 15.3159 4.42133 12.0842
Cu 5.10531 4.42133 12.0842
Cu 7.65797 4.42133 12.0842
Cu 10.2106 4.42133 12.0842
Cu 12.7633 4.42133 12.0842
Cu 16.5923 6.63199 12.0842
Cu 6.38164 6.63199 12.0842
Cu 8.93429 6.63199 12.0842
Cu 11.4869 6.63199 12.0842
Cu 14.0396 6.63199 12.0842
Cu 5.10531 8.84266 12.0842
Cu 7.65797 8.84266 12.0842
Cu 10.2106 8.84266 12.0842
Cu 12.7633 8.84266 12.0842
Cu 15.3159 8.84266 12.0842
Cu 1.27633 0.736888 14.1685
Cu 3.82898 0.736888 14.1685
Cu 6.38164 0.736888 14.1685
Cu 8.93429 0.736888 14.1685
Cu 11.4869 0.736888 14.1685
Cu 2.55266 2.94755 14.1685
Cu 5.10531 2.94755 14.1685
Cu 7.65797 2.94755 14.1685
Cu 10.2106 2.94755 14.1685
Cu 12.7633 2.94755 14.1685
Cu 3.82898 5.15822 14.1685
Cu 6.38164 5.15822 14.1685
Cu 8.93429 5.15822 14.1685
Cu 11.4869 5.15822 14.1685
Cu 14.0396 5.15822 14.1685
Cu 5.10531 7.36888 14.1685
Cu 7.65797 7.36888 14.1685
Cu 10.2106 7.36888 14.1685
Cu 12.7633 7.36888 14.1685
Cu 15.3159 7.36888 14.1685
Cu 6.38164 9.57955 14.1685
Cu 8.93429 9.57955 14.1685
Cu 11.4869 9.57955 14.1685
Cu 14.0396 9.57955 14.1685
Cu 16.5923 9.57955 14.1685
Cu 12.7633 1.47378 16.2527
Cu 2.55266 1.47378 16.2527
Cu 5.10531 1.47378 16.2527
Cu 7.65797 1.47378 16.2527
Cu 10.2106 1.47378 16.2527
Cu 14.0396 3.68444 16.2527
Cu 3.82898 3.68444 16.2527
Cu 6.38164 3.68444 16.2527
Cu 8.93429 3.68444 16.2527
Cu 11.4869 3.68444 16.2527
Cu 15.3159 5.89511 16.2527
Cu 5.10531 5.89511 16.2527
Cu 7.65797 5.89511 16.2527
Cu 10.2106 5.89511 16.2527
Cu 12.7633 5.89511 16.2527
Cu 16.5923 8.10577 16.2527
Cu 6.38164 8.10577 16.2527
Cu 8.93429 8.10577 16.2527
Cu 11.4869 8.10577 16.2527
Cu 14.0396 8.10577 16.2527
Cu 17.8686 10.3164 16.2527
Cu 7.65797 10.3164 16.2527
Cu 10.2106 10.3164 16.2527
Cu 12.7633 10.3164 16.2527
Cu 15.3159 10.3164 16.2527
Cu 0 0 18.3369
Cu 2.55266 0 18.3369
Cu 5.10531 0 18.3369
Cu 7.65797 0 18.3369
Cu 10.2106 0 18.3369
Cu 1.27633 2.21066 18.3369
Cu 3.82898 2.21066 18.3369
Cu 6.38164 2.21066 18.3369
Cu 8.93429 2.21066 18.3369
Cu 11.4869 2.21066 18.3369
Cu 15.3159 4.42133 18.3369
Cu 5.10531 4.42133 18.3369
Cu 7.65797 4.42133 18.3369
Cu 10.2106 4.42133 18.3369
Cu 12.7633 4.42133 18.3369
Cu 16.5923 6.63199 18.3369
Cu 6.38164 6.63199 18.3369
Cu 8.93429 6.63199 18.3369
Cu 11.4869 6.63199 18.3369
Cu 14.0396 6.63199 18.3369
Cu 5.10531 8.84266 18.3369
Cu 7.65797 8.84266 18.3369
Cu 10.2106 8.84266 18.3369
Cu 12.7633 8.84266 18.3369
Cu 15.3159 8.84266 18.3369
C 3 1.7 22.8369
H 3.62912 2.32912 23.4661
H 2.37088 1.07088 23.4661
H 3.62912 1.07088 22.2078
H 2.37088 2.32912 22.2078
130
 Atoms. Timestep: 200
Cu 12.7633 1.47378 10
Cu 2.55266 1.47378 10
Cu 5.10531 1.47378 10
Cu 7.65797 1.47378 10
Cu 10.2106 1.47378 10
Cu 14.0396 3.68444 10
Cu 3.82898 3.68444 10
Cu 6.38164 3.68444 10
Cu 8.93429 3.68444 10
Cu 11.4869 3.68444 10
Cu 15.3159 5.89511 10
Cu 5.10531 5.89511 10
Cu 7.65797 5.89511 10
Cu 10.2106 5.89511 10
Cu 12.7633 5.89511 10
Cu 16.5923 8.10577 10
Cu 6.38164 8.10577 10
Cu 8.93429 8.10577 10
Cu 11.4869 8.10577 10
Cu 14.0396 8.10577 10
Cu 17.8686 10.3164 10
Cu 7.65797 10.3164 10
Cu 10.2106 10.3164 10
Cu 12.7633 10.3164 10
Cu 15.3159 10.3164 10
Cu 6.48077 10.7602 12.124
Cu 2.50775 0.127792 11.975
Cu 5.5561 0.211218 12.0085
Cu 8.12165 0.245404 12.2569
Cu 16.8519 10.8225 11.951
Cu 14.0163 2.24592 11.9869
Cu 3.66655 2.34306 11.866
Cu 6.62246 2.40503 11.911
Cu 9.09058 2.32487 12.1296
Cu 11.4022 2.03687 11.9432
Cu 15.1011 4.48389 11.8277
Cu 4.96597 4.23407 12.0917
Cu 7.64257 4.50371 12.0758
Cu 10.1287 4.55463 11.9359
Cu 12.5358 4.45048 11.9269
Cu 16.5527 6.62575 12.2618
Cu 6.18745 6.29809 12.173
Cu 9.0005 6.75713 12.0486
Cu 11.4888 6.71058 12.0363
Cu 13.9166 6.6118 11.9405
Cu 5.2106 8.49949 12.0122
Cu 7.60497 8.69697 12.0645
Cu 10.1672 9.03244 12.0713
Cu 12.7627 9.07951 11.9557
Cu 15.1892 8.98971 12.1043
Cu 1.35413 0.821474 14.1381
Cu 3.74454 0.54368 13.9765
Cu 6.52402 0.694415 14.1566
Cu 8.9252 0.929446 14.4838
Cu 11.2409 0.935184 13.9437
Cu 2.32333 2.997 14.0876
Cu 4.88266 2.92749 14.2612
Cu 7.46494 3.00284 14.3392
Cu 10.0655 2.99751 14.1779
Cu 12.5276 2.95197 14.0636
Cu 3.78158 5.268 14.3192
Cu 6.17209 5.03003 14.3187
Cu 8.60298 5.13356 14.2384
Cu 11.4358 5.16085 14.0285
Cu 13.8691 5.3337 13.918
Cu 5.45323 7.4817 14.2899
Cu 7.96775 7.39801 14.0924
Cu 10.5003 7.46172 14.2387
Cu 12.8042 7.57537 14.0366
Cu 15.5355 7.54026 14.2512
Cu 6.54133 9.57973 14.0937
Cu 9.18526 9.31335 14.2057
Cu 11.716 9.62548 14.1448
Cu 14.2488 9.79919 14.3678
Cu 16.7297 9.58975 14.0637
Cu 12.6028 1.20285 15.8873
Cu 2.39021 1.55652 16.22
Cu 5.22659 1.52856 16.1217
Cu 7.54993 1.36444 16.5732
Cu 10.274 1.25963 16.4063
Cu 14.0351 3.50405 16.0366
Cu 3.78525 3.43127 16.4098
Cu 6.33735 3.66474 16.2985
Cu 8.9135 3.62036 16.3417
Cu 11.4307 3.67348 15.9933
Cu 15.1018 5.53509 16.288
Cu 5.15355 5.56476 16.4909
Cu 7.61113 5.98165 16.1397
Cu 10.1268 5.73687 16.2179
Cu 12.6769 6.14999 15.851
Cu 16.842 7.86108 16.0776
Cu 6.66297 7.99517 16.2173
Cu 9.27204 8.13258 16.5973
Cu 11.5622 8.18206 16.2868
Cu 14.2389 8.1705 16.4372
Cu 17.7734 10.0651 16.1279
Cu 7.81214 10.3195 16.1822
Cu 10.4905 10.2761 16.2615
Cu 12.822 10.2799 16.3239
Cu 15.2748 10.537 16.6722
Cu 6.32542 10.9195 18.5118
Cu 8.95505 11.0387 18.5481
Cu 5.10065 0.0566219 18.6476
Cu 7.45354 0.279562 18.9023
Cu 16.8291 11.0463 18.6397
Cu 13.9134 2.07817 18.022
Cu 3.45118 2.21704 18.5613
Cu 6.10581 2.31564 18.3188
Cu 9.05089 2.21461 18.5025
Cu 11.4661 2.14718 18.1398
Cu 15.0498 4.42636 18.5613
Cu 4.78126 4.38527 18.7276
Cu 7.96364 4.18234 18.3106
Cu 10.4444 4.2587 18.4236
Cu 13.016 4.85791 17.8472
Cu 16.4251 6.46221 18.3294
Cu 6.24382 6.47081 18.5359
Cu 8.83561 6.60817 18.4913
Cu 11.2461 6.69815 18.3316
Cu 14.115 6.71667 18.5414
Cu 5.13697 8.53272 18.0987
Cu 7.69667 9.01826 18.3532
Cu 10.0633 8.98786 18.9021
Cu 12.6179 8.92367 18.5954
Cu 15.4834 9.08582 18.8699
C 2.73849 1.40524 24.4141
H 1.63662 1.65005 24.6173
H 3.10187 1.14482 23.3987
H 2.97362 0.59635 25.0656
H 3.15221 2.34668 25.072
130
 Atoms. Timestep: 400
Cu 12.7633 1.47378 10
Cu 2.55266 1.47378 10
Cu 5.10531 1.47378 10
Cu 7.65797 1.47378 10
Cu 10.2106 1.47378 10
Cu 14.0396 3.68444 10
Cu 3.82898 3.68444 10
Cu 6.38164 3.68444 10
Cu 8.93429 3.68444 10
Cu 11.4869 3.68444 10
Cu 15.3159 5.89511 10
Cu 5.10531 5.89511 10
Cu 7.65797 5.89511 10
Cu 10.2106 5.89511 10
Cu 12.7633 5.89511 10
Cu 16.5923 8.10577 10
Cu 6.38164 8.10577 10
Cu 8.93429 8.10577 10
Cu 11.4869 8.10577 10
Cu 14.0396 8.10577 10
Cu 17.8686 10.3164 10
Cu 7.65797 10.3164 10
Cu 10.2106 10.3164 10
Cu 12.7633 10.3164 10
Cu 15.3159 10.3164 10
Cu 18.9012 11.0692 12.0318
Cu 9.07894 10.8439 12.0932
Cu 11.3097 10.9579 12.0966
Cu 7.52804 0.0462145 12.274
Cu 9.93912 0.208673 12.1241
Cu 1.35286 2.18202 11.9962
Cu 3.89312 2.13813 12.1861
Cu 6.20784 2.2079 12.3231
Cu 8.79583 2.24384 12.1384
Cu 11.4538 2.35181 11.9821
Cu 2.75109 4.41752 12.322
Cu 5.15866 4.65788 12.1254
Cu 7.53016 4.40309 12.137
Cu 10.2877 4.32757 12.0515
Cu 12.9012 4.44363 12.1431
Cu 16.5445 6.55892 11.934
Cu 6.64881 6.90431 12.0074
Cu 9.012 6.48608 12.1858
Cu 11.4812 6.61184 12.1906
Cu 14.18 6.84526 12.0558
Cu 17.8023 8.92104 12.2347
Cu 7.89718 8.8055 12.2261
Cu 10.535 8.80581 12.2043
Cu 12.9648 9.02361 12.111
Cu 15.5441 8.76683 12.1226
Cu 1.19052 0.746095 13.9206
Cu 3.85496 1.00467 14.1172
Cu 6.28297 0.990535 14.5896
Cu 8.91898 0.655783 14.5169
Cu 11.6959 0.59186 14.3934
Cu 2.67648 2.96117 14.1405
Cu 5.08709 2.95153 14.2893
Cu 7.58832 3.03393 14.2495
Cu 10.2436 2.78875 14.1156
Cu 12.8877 2.89832 14.0628
Cu 3.6575 5.13065 14.524
Cu 6.3927 5.01894 14.2556
Cu 9.15433 5.15482 14.1998
Cu 11.4776 5.00631 14.2256
Cu 14.0887 5.0639 14.2233
Cu 5.04082 7.18822 14.1736
Cu 7.62377 7.20004 14.4681
Cu 10.2074 7.348 14.2913
Cu 12.9529 7.59942 14.1195
Cu 15.3873 7.28324 14.218
Cu 6.52772 9.62952 14.3088
Cu 8.98214 9.98116 14.4594
Cu 11.5746 9.67493 14.3484
Cu 14.3693 9.66354 14.4648
Cu 16.7536 9.45948 14.3572
Cu 13.0163 1.44474 16.2705
Cu 2.71365 1.20314 15.9476
Cu 4.98561 1.26938 16.5724
Cu 7.74119 1.61234 16.8027
Cu 10.2679 1.4983 16.3162
Cu 13.7619 3.64934 15.9947
Cu 3.58214 3.78075 16.5458
Cu 6.25493 3.60274 16.5794
Cu 8.88803 3.57313 16.2667
Cu 11.296 3.56718 16.2847
Cu 15.0429 5.9717 16.6312
Cu 4.99897 5.85488 16.404
Cu 7.63151 5.6135 16.5676
Cu 10.2797 5.9913 16.3896
Cu 12.6779 6.05264 15.8846
Cu 16.5808 7.92978 16.3946
Cu 6.42628 8.20664 16.497
Cu 8.9965 8.00698 16.4025
Cu 11.7484 8.49651 16.1851
Cu 14.2456 8.02309 16.5585
Cu 17.9777 10.3006 16.5249
Cu 7.85127 10.1051 16.5457
Cu 10.176 10.0608 16.8149
Cu 12.9844 10.5765 16.7822
Cu 15.5247 9.95518 16.6745
Cu 12.7445 0.0611053 18.2533
Cu 8.80967 11.0174 18.4867
Cu 4.88805 -0.0176295 18.624
Cu 7.66348 0.0627936 18.9455
Cu 16.441 10.8036 18.8118
Cu 14.0568 2.35259 18.2496
Cu 3.66601 2.12914 18.6609
Cu 6.18063 2.31428 18.8535
Cu 9.10263 2.18372 18.7929
Cu 11.626 2.30578 18.4233
Cu 15.205 4.39483 18.5819
Cu 4.92789 4.35878 18.7415
Cu 7.38926 4.23824 18.8299
Cu 10.023 4.49161 18.2433
Cu 12.4797 4.59725 18.0977
Cu 16.4389 6.75272 18.5558
Cu 6.31601 6.47601 18.6504
Cu 8.81471 6.17316 18.7179
Cu 11.6904 7.10629 18.1651
Cu 13.8184 6.79304 18.8179
Cu 17.825 8.96035 18.691
Cu 7.5739 8.41881 18.6093
Cu 10.2834 8.72675 19.0659
Cu 12.8621 9.07464 18.8441
Cu 15.1967 8.63936 19.1117
C 2.36694 1.00679 26.5409
H 3.229 1.52525 27.0846
H 1.81024 0.453973 27.3819
H 2.95632 0.536201 25.8768
H 1.44815 1.526 26.0048
130
 Atoms. Timestep: 600
Cu 12.7633 1.47378 10
Cu 2.55266 1.47378 10
Cu 5.10531 1.47378 10
Cu 7.65797 1.47378 10
Cu 10.2106 1.47378 10
Cu 14.0396 3.68444 10
Cu 3.82898 3.68444 10
Cu 6.38164 3.68444 10
Cu 8.93429 3.68444 10
Cu 11.4869 3.68444 10
Cu 15.3159 5.89511 10
Cu 5.10531 5.89511 10
Cu 7.65797 5.89511 10
Cu 10.2106 5.89511 10
Cu 12.7633 5.89511 10
Cu 16.5923 8.10577 10
Cu 6.38164 8.10577 10
Cu 8.93429 8.10577 10
Cu 11.4869 8.10577 10
Cu 14.0396 8.10577 10
Cu 17.8686 10.3164 10
Cu 7.65797 10.3164 10
Cu 10.2106 10.3164 10
Cu 12.7633 10.3164 10
Cu 15.3159 10.3164 10
Cu 12.8431 0.147167 12.4602
Cu 2.59785 0.183877 12.1803
Cu 11.532 10.9191 12.0289
Cu 7.69442 0.0378318 12.4364
Cu 16.5613 10.9685 12.2855
Cu 14.0336 2.2822 12.1115
Cu 3.93238 2.32259 11.9779
Cu 6.19169 2.25475 12.475
Cu 8.73084 2.28484 12.0558
Cu 11.229 2.16102 12.0741
Cu 2.72083 4.50286 12.1891
Cu 5.34188 4.42679 12.3994
Cu 7.85132 4.52902 12.1058
Cu 10.2654 4.37823 12.2927
Cu 12.9804 4.33633 12.0213
Cu 4.05143 6.9659 12.1707
Cu 6.47216 6.63883 12.3589
Cu 9.07385 6.55844 12.2642
Cu 11.6203 6.51931 12.0718
Cu 14.2976 6.48916 12.2224
Cu 5.35558 9.14313 12.194
Cu 7.62148 9.155 12.5523
Cu 9.98789 8.66351 12.3264
Cu 12.7713 8.53429 12.2796
Cu 15.1472 8.95234 12.3471
Cu 1.54325 0.590513 14.4726
Cu 4.20239 0.814409 14.3629
Cu 6.70399 0.760786 14.6648
Cu 8.99932 0.619061 14.4372
Cu 11.4738 0.655683 14.5767
Cu 2.33485 2.89337 14.7079
Cu 5.20924 2.95012 14.595
Cu 7.8906 2.78509 14.2553
Cu 10.2376 2.87294 14.2832
Cu 12.6982 2.71931 14.0326
Cu 3.87806 5.19143 14.1646
Cu 6.53959 5.05949 14.5199
Cu 8.97957 5.24872 14.5089
Cu 11.5896 5 14.2125
Cu 14.1256 5.11381 14.3643
Cu 5.03999 7.42182 14.3221
Cu 7.68344 7.48685 14.4297
Cu 10.2047 7.33157 14.5658
Cu 12.5475 7.16061 14.3378
Cu 15.1663 7.47498 14.6249
Cu 6.32373 9.3416 14.6324
Cu 9.17866 9.50434 14.613
Cu 11.5625 9.73462 14.2599
Cu 13.7473 9.40739 14.4722
Cu 16.4728 9.56206 14.4897
Cu 12.5996 1.68029 16.4707
Cu 2.445 1.16136 16.807
Cu 5.19408 1.48409 16.7713
Cu 7.61294 1.48471 16.7143
Cu 10.1529 1.41131 16.831
Cu 14.0259 3.87125 16.9478
Cu 3.78305 3.4197 16.5304
Cu 6.38822 3.70345 16.7537
Cu 8.83067 3.56646 16.4972
Cu 11.6235 3.76816 16.3087
Cu 15.619 5.97442 16.5017
Cu 5.10501 5.69707 16.4694
Cu 7.64946 5.81442 16.8065
Cu 10.1875 5.75547 16.3162
Cu 12.9219 5.78446 16.7168
Cu 16.4026 8.08593 16.6393
Cu 6.22995 8.00601 16.7226
Cu 8.73411 7.85024 16.6042
Cu 11.404 8.14411 16.3108
Cu 13.915 8.194 16.8497
Cu 17.8249 10.3392 16.6215
Cu 7.31683 10.1294 16.5621
Cu 10.1 10.382 16.7014
Cu 12.6489 10.217 16.6824
Cu 15.2021 10.4639 16.6151
Cu 12.7444 0.14591 18.8639
Cu 2.52467 0.00582685 18.8848
Cu 11.5486 10.8819 19.0906
Cu 14.2427 10.9175 18.6971
Cu 10.3733 0.201748 18.7319
Cu 1.33424 2.31335 18.7047
Cu 3.93949 2.25833 18.7075
Cu 6.48237 1.76833 18.9339
Cu 8.692 2.1748 18.7718
Cu 11.4092 2.22639 18.5807
Cu 15.2682 4.52201 18.9256
Cu 4.81533 4.54424 18.4635
Cu 7.57948 4.32933 18.7461
Cu 10.2638 4.43148 18.3144
Cu 12.663 4.36456 18.9486
Cu 3.87411 6.68225 18.8224
Cu 6.29343 6.65941 18.7566
Cu 8.91736 6.86135 18.6962
Cu 11.3066 6.46546 18.4964
Cu 14.0101 6.55722 18.7009
Cu 5.19198 8.72061 18.9923
Cu 7.64396 9.07178 18.6915
Cu 9.96428 8.81837 18.5664
Cu 12.6876 8.71811 18.8257
Cu 15.3737 8.94417 18.5884
C 2.00309 0.593888 28.7016
H 1.09359 1.02729 28.0185
H 3.12457 0.492443 28.241
H 8.16763 10.5763 29.19
H 1.75009 1.27824 29.6968
130
 Atoms. Timestep: 800
Cu 12.7633 1.47378 10
Cu 2.55266 1.47378 10
Cu 5.10531 1.47378 10
Cu 7.65797 1.47378 10
Cu 10.2106 1.47378 10
Cu 14.0396 3.68444 10
Cu 3.82898 3.68444 10
Cu 6.38164 3.68444 10
Cu 8.93429 3.68444 10
Cu 11.4869 3.68444 10
Cu 15.3159 5.89511 10
Cu 5.10531 5.89511 10
Cu 7.65797 5.89511 10
Cu 10.2106 5.89511 10
Cu 12.7633 5.89511 10
Cu 16.5923 8.10577 10
Cu 6.38164 8.10577 10
Cu 8.93429 8.10577 10
Cu 11.4869 8.10577 10
Cu 14.0396 8.10577 10
Cu 17.8686 10.3164 10
Cu 7.65797 10.3164 10
Cu 10.2106 10.3164 10
Cu 12.7633 10.3164 10
Cu 15.3159 10.3164 10
Cu 0.188823 0.261079 12.5578
Cu 2.56065 0.0198307 12.4056
Cu 5.10638 0.187703 12.2399
Cu 14.4054 10.887 12.21
Cu 10.6116 0.0402079 12.1346
Cu 1.47751 2.30177 12.4164
Cu 3.83083 2.30746 12.6462
Cu 6.74227 1.91172 12.1155
Cu 9.17845 2.11482 12.2285
Cu 11.6958 2.26637 12.2667
Cu 2.56404 4.35107 11.9746
Cu 5.02323 4.42497 12.1029
Cu 7.46308 4.13036 12.1572
Cu 10.0572 4.35025 11.9927
Cu 12.5548 4.5601 12.2212
Cu 16.5123 6.44914 12.2172
Cu 6.26931 6.66983 12.3748
Cu 8.83918 6.93417 12.0649
Cu 11.3366 6.72844 12.1975
Cu 13.7526 6.41876 12.5018
Cu 5.01 8.558 12.1535
Cu 7.70368 8.81525 12.283
Cu 10.2539 9.07842 11.9347
Cu 12.6192 8.97401 12.1919
Cu 15.189 8.67243 12.2847
Cu 1.42697 0.675048 14.7598
Cu 3.73787 0.678861 14.3759
Cu 6.16523 0.331671 14.187
Cu 9.01774 1.05677 14.4041
Cu 11.3287 0.898897 14.4004
Cu 2.54812 2.81358 14.5505
Cu 5.25224 2.85588 14.4943
Cu 7.5878 3.05537 14.5406
Cu 10.1787 3.09964 14.6432
Cu 12.6963 2.83628 14.5816
Cu 3.63285 5.16967 14.2336
Cu 6.22908 5.08288 14.4322
Cu 8.79546 5.08414 14.1806
Cu 11.4732 5.10027 14.3944
Cu 13.7546 4.86692 14.7917
Cu 5.26107 7.27915 14.7245
Cu 7.4642 7.23391 14.4643
Cu 10.2367 7.20003 14.2029
Cu 12.9034 7.30457 14.5551
Cu 15.4507 7.20978 14.4597
Cu 6.21868 9.73384 14.6064
Cu 8.82814 9.58408 14.303
Cu 11.3238 9.26267 14.3603
Cu 13.8217 9.53583 14.4423
Cu 16.4123 9.65446 14.2218
Cu 12.7128 1.28761 16.6269
Cu 2.65264 1.66017 17.198
Cu 5.09842 1.40383 16.5871
Cu 7.65285 1.38957 16.4607
Cu 10.2463 1.54096 16.4324
Cu 14.0067 3.64402 16.9488
Cu 4.01127 3.67881 16.5811
Cu 6.36102 3.60229 16.68
Cu 9.09278 3.71546 16.7334
Cu 11.7804 3.68957 16.6506
Cu 15.2517 5.65734 16.5657
Cu 5.26095 5.81512 16.6003
Cu 7.69497 5.98711 16.4488
Cu 10.0972 5.81785 16.5799
Cu 12.7457 6.0126 16.8075
Cu 16.7399 8.0218 16.3419
Cu 6.43586 8.22889 16.7021
Cu 8.79388 8.35324 16.7244
Cu 11.263 7.68488 16.8314
Cu 14.0848 8.00502 16.4985
Cu 17.5627 10.5661 16.8533
Cu 7.83282 10.5061 17.2339
Cu 9.9319 10.3988 16.3304
Cu 12.4907 9.88297 16.6639
Cu 15.0011 10.267 16.3263
Cu 0.0128781 0.13335 18.981
Cu 2.678 0.1251 19.217
Cu 11.5243 11.0569 18.7929
Cu 13.7655 10.7394 18.6972
Cu 10.1361 0.00353284 19.0441
Cu 14.0356 2.03282 19.6427
Cu 3.7871 2.11063 19.2857
Cu 6.23704 2.37573 18.6588
Cu 8.92227 1.96418 18.672
Cu 11.6288 2.30697 18.8514
Cu 2.61084 4.14968 19.2754
Cu 5.28526 4.35371 18.8209
Cu 7.87313 4.47021 18.8538
Cu 10.261 4.23682 18.9181
Cu 12.9821 4.60967 19.1784
Cu 16.7042 6.53389 18.6427
Cu 6.3908 6.58361 18.8184
Cu 8.91619 6.65964 18.7386
Cu 11.5155 6.62425 19.4326
Cu 14.214 6.72639 18.7616
Cu 17.9528 9.00255 18.7283
Cu 7.69279 8.79414 18.8764
Cu 10.2575 9.10031 18.527
Cu 12.5727 8.48929 18.6179
Cu 15.4824 8.95171 18.897
C 1.57887 0.163616 27.9315
H 1.55518 0.187866 26.961
H 2.56212 -0.0217504 28.0824
H 7.40069 10.4056 28.5662
H 1.3993 1.0151 28.5066
130
 Atoms. Timestep: 1000
Cu 12.7633 1.47378 10
Cu 2.55266 1.47378 10
Cu 5.10531 1.47378 10
Cu 7.65797 1.47378 10
Cu 10.2106 1.47378 10
Cu 14.0396 3.68444 10
Cu 3.82898 3.68444 10
Cu 6.38164 3.68444 10
Cu 8.93429 3.68444 10
Cu 11.4869 3.68444 10
Cu 15.3159 5.89511 10
Cu 5.10531 5.89511 10
Cu 7.65797 5.89511 10
Cu 10.2106 5.89511 10
Cu 12.7633 5.89511 10
Cu 16.5923 8.10577 10
Cu 6.38164 8.10577 10
Cu 8.93429 8.10577 10
Cu 11.4869 8.10577 10
Cu 14.0396 8.10577 10
Cu 17.8686 10.3164 10
Cu 7.65797 10.3164 10
Cu 10.2106 10.3164 10
Cu 12.7633 10.3164 10
Cu 15.3159 10.3164 10
Cu 6.27282 10.896 12.2812
Cu 2.52209 0.123348 11.9045
Cu 11.3416 10.8621 11.904
Cu 14.1355 11.0569 12.035
Cu 16.5074 10.977 12.0683
Cu 1.30141 2.07536 12.4234
Cu 3.84107 2.07771 12.0404
Cu 6.41842 2.08281 12.392
Cu 9.192 2.21076 12.2275
Cu 11.5632 2.18851 12.2185
Cu 14.863 4.42644 12.4982
Cu 5.0919 4.20017 12.138
Cu 7.68031 4.37168 12.2394
Cu 10.1962 4.52947 12.2978
Cu 12.5275 4.50269 12.5642
Cu 16.4408 6.44547 12.1011
Cu 6.3272 6.41305 11.96
Cu 8.77356 6.41317 12.156
Cu 11.4649 6.85596 12.1224
Cu 13.9264 6.80078 12.3196
Cu 17.807 8.99694 12.2081
Cu 7.32467 8.78008 11.8911
Cu 9.99947 8.78269 12.4233
Cu 12.8734 8.85378 12.1244
Cu 15.4056 8.61175 11.9658
Cu 1.06778 0.642443 14.5357
Cu 3.62467 0.59866 14.3276
Cu 6.31635 0.772612 14.5319
Cu 8.57994 0.552574 14.2954
Cu 11.3037 0.758535 14.3544
Cu 2.39263 2.63528 15.0204
Cu 5.1672 2.74387 14.3182
Cu 7.73261 2.96927 14.3837
Cu 10.1781 3.08993 14.2869
Cu 12.7751 3.1927 14.8331
Cu 3.85299 4.95689 14.5784
Cu 6.30192 5.20494 14.1383
Cu 8.7928 5.17796 14.3185
Cu 11.392 5.2901 14.6165
Cu 14.1696 5.35552 14.5501
Cu 4.79675 7.37358 13.9451
Cu 7.52353 7.44949 14.1572
Cu 9.94496 7.34982 14.3973
Cu 12.6152 7.33056 14.7002
Cu 15.2725 7.22594 14.2391
Cu 6.17554 9.4488 14.4519
Cu 8.66334 9.56345 14.1665
Cu 11.3498 9.50962 14.3807
Cu 14.2619 9.42554 14.1745
Cu 16.6265 9.69584 14.3894
Cu 13.1323 1.57548 17.0814
Cu 2.71606 1.37568 17.2136
Cu 5.15389 1.64754 16.3475
Cu 7.58491 1.28994 16.4174
Cu 10.0779 1.47172 16.5183
Cu 14.1078 3.58571 16.9374
Cu 3.79536 3.73405 17.0148
Cu 6.38071 3.87188 16.3855
Cu 8.71378 3.69897 16.6223
Cu 11.043 3.59971 17.0876
Cu 15.3467 5.92084 16.7617
Cu 5.19648 5.96225 16.3674
Cu 7.60493 5.87911 16.547
Cu 10.241 5.80025 16.4369
Cu 12.5792 5.68799 16.9128
Cu 16.6344 8.05546 16.6392
Cu 6.38865 8.16506 16.5137
Cu 8.94273 7.89741 16.4007
Cu 11.4546 8.22235 16.6638
Cu 14.106 7.95787 16.6179
Cu 18.1005 10.2354 16.45
Cu 7.66647 10.0977 17.2525
Cu 10.1632 10.2062 16.49
Cu 12.7876 10.323 16.291
Cu 15.6179 10.1807 16.6149
Cu 18.8935 10.8941 19.0838
Cu 8.82691 10.9513 19.5663
Cu 4.71944 0.335047 18.2615
Cu 7.78404 0.0310554 18.3346
Cu 16.4291 10.9599 19.0009
Cu 1.48935 2.30586 19.7178
Cu 4.05171 2.4096 19.4616
Cu 6.6837 2.12476 18.4698
Cu 9.10429 2.35347 18.6023
Cu 11.5143 2.08753 18.9
Cu 2.67848 4.45296 18.8097
Cu 5.12611 4.44832 19.0643
Cu 7.63678 4.47576 18.6692
Cu 10.4867 4.47338 19.265
Cu 12.7873 4.3149 19.0007
Cu 3.85291 6.64075 18.8263
Cu 6.57901 6.64661 18.5197
Cu 9.41992 6.44751 18.5944
Cu 11.6916 6.71107 19.1939
Cu 14.2069 6.55128 18.9775
Cu 5.04173 8.73767 18.6215
Cu 7.84271 8.43275 19.2303
Cu 10.1978 8.80357 18.879
Cu 12.9151 8.87748 18.6033
Cu 15.3573 8.71997 18.7433
C 7.55229 10.7689 25.2031
H 7.06965 9.70413 25.1296
H 8.62448 10.5665 25.2972
H 0.927784 0.634666 26.0788
H 1.28108 0.175361 24.186
130
 Atoms. Timestep: 1200
Cu 12.7633 1.47378 10
Cu 2.55266 1.47378 10
Cu 5.10531 1.47378 10
Cu 7.65797 1.47378 10
Cu 10.2106 1.47378 10
Cu 14.0396 3.68444 10
Cu 3.82898 3.68444 10
Cu 6.38164 3.68444 10
Cu 8.93429 3.68444 10
Cu 11.4869 3.68444 10
Cu 15.3159 5.89511 10
Cu 5.10531 5.89511 10
Cu 7.65797 5.89511 10
Cu 10.2106 5.89511 10
Cu 12.7633 5.89511 10
Cu 16.5923 8.10577 10
Cu 6.38164 8.10577 10
Cu 8.93429 8.10577 10
Cu 11.4869 8.10577 10
Cu 14.0396 8.10577 10
Cu 17.8686 10.3164 10
Cu 7.65797 10.3164 10
Cu 10.2106 10.3164 10
Cu 12.7633 10.3164 10
Cu 15.3159 10.3164 10
Cu 12.6958 0.0641964 12.022
Cu 8.7728 10.8134 12.3796
Cu 11.2628 11.0876 12.1696
Cu 7.3392 -0.0117268 12.1219
Cu 10.0228 0.0821452 12.2584
Cu 13.8633 2.24602 12.5417
Cu 3.67949 2.16971 12.1187
Cu 6.11415 2.3106 11.9232
Cu 8.58961 2.1183 11.9312
Cu 11.2266 2.23964 12.1347
Cu 2.79388 4.09241 12.4854
Cu 5.00253 4.529 12.1462
Cu 7.82335 4.5256 12.106
Cu 10.2119 4.20085 12.3254
Cu 13.1833 4.30842 12.3359
Cu 3.76796 6.53979 12.0317
Cu 6.33821 6.62166 12.074
Cu 9.0959 6.55029 12.3243
Cu 11.435 6.46401 12.3109
Cu 14.1679 6.48212 12.0001
Cu 5.06415 8.64716 11.9646
Cu 7.66899 8.87661 12.2735
Cu 10.3762 8.79528 12.0044
Cu 12.603 8.59801 12.1991
Cu 15.1034 9.09836 12.4177
Cu 0.950347 0.566995 14.609
Cu 3.77155 0.91365 14.0052
Cu 6.34016 0.741133 14.0645
Cu 8.99153 0.622238 14.357
Cu 11.5926 0.665361 14.1729
Cu 2.32786 2.51668 15.1028
Cu 4.47628 3.14992 14.3634
Cu 7.60799 2.73321 14.0815
Cu 10.2858 2.78519 14.4719
Cu 12.7111 2.98679 15.005
Cu 3.60539 5.26952 14.2088
Cu 6.36777 4.90827 14.2661
Cu 9.09712 5.18736 14.3548
Cu 11.4006 5.27285 14.4703
Cu 13.8592 5.11792 14.6317
Cu 5.0832 7.35934 14.1627
Cu 7.57551 7.24078 14.2183
Cu 10.222 7.50077 14.3899
Cu 12.7291 7.43505 14.2897
Cu 15.3484 7.33089 14.7138
Cu 6.26631 9.6042 13.8929
Cu 8.93361 9.40983 14.575
Cu 11.4276 9.64594 14.4898
Cu 13.7235 9.64927 14.3097
Cu 16.5625 9.39675 14.3853
Cu 12.7333 1.33828 17.2343
Cu 2.71878 1.08135 17.1734
Cu 4.98175 1.16863 16.2194
Cu 7.64131 1.56625 16.3591
Cu 10.4617 1.47028 16.4664
Cu 14.1337 3.78092 16.8862
Cu 3.74267 3.56995 16.8444
Cu 6.27069 3.69553 16.283
Cu 8.88027 3.65036 16.2231
Cu 11.3419 3.61719 16.9044
Cu 15.4197 5.91159 16.6747
Cu 5.12958 5.84136 16.3113
Cu 7.71543 5.72231 16.3724
Cu 10.226 5.93308 16.5654
Cu 12.8934 5.8433 16.5909
Cu 16.8702 8.11922 16.5044
Cu 6.48975 8.01027 16.1841
Cu 8.96545 8.04471 16.5853
Cu 11.3362 8.07671 16.475
Cu 13.9624 8.09624 16.6491
Cu 18.1011 10.3998 16.4232
Cu 7.73754 10.1387 16.7994
Cu 10.2092 10.2538 16.3792
Cu 13.0204 10.5032 16.4068
Cu 15.4143 10.2547 16.4568
Cu 6.56996 10.7769 19.0342
Cu 8.86111 11.0151 19.1791
Cu 4.88442 0.0568287 18.6757
Cu 7.75713 0.224927 18.5663
Cu 10.6618 -0.00463342 18.3588
Cu 1.5691 2.14282 18.7284
Cu 3.90045 2.27523 18.9312
Cu 6.18897 2.3841 18.3966
Cu 9.03594 2.36529 18.7424
Cu 11.5357 1.9597 19.2769
Cu 15.3381 4.57829 19.0524
Cu 5.21469 4.59198 18.6338
Cu 7.81469 4.38326 18.4322
Cu 10.2665 4.56988 19.0996
Cu 12.6755 4.10714 18.7855
Cu 3.8875 6.61319 19.2139
Cu 6.29813 6.59974 18.4671
Cu 8.73864 6.72514 18.5968
Cu 11.4658 6.73277 18.3147
Cu 14.1187 6.64037 18.7989
Cu 5.45982 8.72775 18.5876
Cu 7.80999 8.84099 19.0456
Cu 10.2008 8.86505 18.6716
Cu 12.6694 9.40588 18.5563
Cu 15.3392 8.7859 18.3831
C 7.21821 10.3544 22.1801
H 6.42358 10.6404 22.8171
H 8.14734 10.0168 22.5238
H 1.00702 -0.0295482 21.5062
H 6.53715 9.56014 21.8605
130
 Atoms. Timestep: 1400
Cu 12.7633 1.47378 10
Cu 2.55266 1.47378 10
Cu 5.10531 1.47378 10
Cu 7.65797 1.47378 10
Cu 10.2106 1.47378 10
Cu 14.0396 3.68444 10
Cu 3.82898 3.68444 10
Cu 6.38164 3.68444 10
Cu 8.93429 3.68444 10
Cu 11.4869 3.68444 10
Cu 15.3159 5.89511 10
Cu 5.10531 5.89511 10
Cu 7.65797 5.89511 10
Cu 10.2106 5.89511 10
Cu 12.7633 5.89511 10
Cu 16.5923 8.10577 10
Cu 6.38164 8.10577 10
Cu 8.93429 8.10577 10
Cu 11.4869 8.10577 10
Cu 14.0396 8.10577 10
Cu 17.8686 10.3164 10
Cu 7.65797 10.3164 10
Cu 10.2106 10.3164 10
Cu 12.7633 10.3164 10
Cu 15.3159 10.3164 10
Cu 6.42711 10.9372 12.0144
Cu 8.822 10.9562 12.4747
Cu 5.19873 -0.0555733 12.0225
Cu 14.0807 11.048 12.0905
Cu 16.6 10.9576 11.8649
Cu 1.20291 1.93578 12.7566
Cu 3.66844 2.22145 12.2196
Cu 6.41524 2.27762 12.2645
Cu 9.09025 2.07952 12.2858
Cu 11.7462 2.20167 12.0907
Cu 15.2455 4.56689 12.0047
Cu 4.94388 4.61713 12.0549
Cu 7.57487 4.35808 12.0708
Cu 10.0811 4.38791 11.8999
Cu 12.5805 4.27312 11.9331
Cu 16.6914 6.76743 12.3264
Cu 6.51172 6.72929 12.4432
Cu 9.05664 6.76291 11.8691
Cu 11.6405 6.40774 12.0815
Cu 14.0696 6.41725 12.3977
Cu 17.8855 8.96883 12.1132
Cu 7.79952 8.78332 11.9445
Cu 10.1492 8.92813 12.2457
Cu 12.7501 8.81796 12.053
Cu 15.2564 8.60485 12.3198
Cu 1.41744 0.48357 14.6807
Cu 3.82456 0.45059 14.6375
Cu 6.19104 1.05246 14.0702
Cu 8.8794 0.95603 14.3326
Cu 11.2736 0.671222 14.0208
Cu 2.43727 3.08099 14.386
Cu 4.91826 3.1155 14.3139
Cu 7.73714 3.08919 14.1459
Cu 10.1971 2.99371 14.0935
Cu 12.507 2.5903 14.5822
Cu 3.77063 5.27744 14.3412
Cu 6.20977 5.21938 14.1747
Cu 8.91445 4.89129 14.1321
Cu 11.6749 4.75767 14.4124
Cu 13.9898 4.7975 14.1074
Cu 5.24403 7.30273 14.5087
Cu 7.88238 7.16053 14.3428
Cu 10.5213 7.08139 14.0401
Cu 12.6988 7.17927 14.2779
Cu 15.3244 7.5194 14.48
Cu 6.46114 9.54167 14.1947
Cu 8.72887 9.39718 14.3452
Cu 11.4544 9.57726 13.9831
Cu 13.9491 9.83705 14.3659
Cu 16.4437 9.73335 14.0323
Cu 12.7159 1.43877 16.7533
Cu 2.60419 1.58578 16.4714
Cu 5.15388 1.80033 16.4522
Cu 7.83611 1.35146 16.4076
Cu 10.2288 1.48857 16.2457
Cu 13.9664 3.81685 16.7387
Cu 3.6662 3.6665 16.483
Cu 6.57473 3.58741 16.1962
Cu 9.07818 3.54846 16.3492
Cu 11.6452 3.81193 16.6436
Cu 15.4689 5.83305 16.8417
Cu 5.11546 5.73222 16.2701
Cu 7.47823 5.82336 16.2741
Cu 10.0042 5.81885 16.2396
Cu 12.7663 5.96515 16.4011
Cu 16.5357 7.87941 16.6099
Cu 6.60798 8.17072 16.2858
Cu 8.95409 7.94533 16.4911
Cu 11.6817 8.00504 16.3098
Cu 14.0816 8.22595 16.3145
Cu 17.6492 10.2147 15.8901
Cu 7.56114 10.3696 16.8123
Cu 10.1646 10.0889 16.7032
Cu 12.6426 10.155 16.6263
Cu 15.3479 10.291 16.3468
Cu 0.202279 0.370198 18.766
Cu 2.87021 0.120997 18.5837
Cu 5.35855 0.129561 18.7765
Cu 7.60983 0.0600601 18.6993
Cu 16.7298 11.0662 18.1742
Cu 13.959 2.47714 18.9576
Cu 3.69929 2.2256 18.5224
Cu 6.35307 2.20153 18.3464
Cu 9.17812 2.19203 18.3065
Cu 11.5789 2.4438 19.0659
Cu 2.56385 4.36023 18.8095
Cu 5.04336 4.30943 18.4475
Cu 7.48949 4.35163 18.2361
Cu 10.0918 4.33416 18.3942
Cu 12.8085 4.95644 18.8891
Cu 16.6715 6.79918 18.6616
Cu 6.29147 6.66521 18.2667
Cu 8.93034 6.39207 18.691
Cu 11.304 6.77348 18.7139
Cu 13.9423 6.77929 18.5335
Cu 5.16171 9.05297 18.2354
Cu 7.67227 8.85199 18.4459
Cu 10.2883 8.73237 18.5816
Cu 12.9417 8.67774 18.5334
Cu 15.497 9.15083 18.6708
C 6.82347 9.73419 21.0057
H 7.32659 10.8582 20.9521
H 6.29555 9.4235 21.8958
H 7.59915 8.96038 20.7961
H 6.17784 9.80674 19.8167
130
 Atoms. Timestep: 1600
Cu 12.7633 1.47378 10
Cu 2.55266 1.47378 10
Cu 5.10531 1.47378 10
Cu 7.65797 1.47378 10
Cu 10.2106 1.47378 10
Cu 14.0396 3.68444 10
Cu 3.82898 3.68444 10
Cu 6.38164 3.68444 10
Cu 8.93429 3.68444 10
Cu 11.4869 3.68444 10
Cu 15.3159 5.89511 10
Cu 5.10531 5.89511 10
Cu 7.65797 5.89511 10
Cu 10.2106 5.89511 10
Cu 12.7633 5.89511 10
Cu 16.5923 8.10577 10
Cu 6.38164 8.10577 10
Cu 8.93429 8.10577 10
Cu 11.4869 8.10577 10
Cu 14.0396 8.10577 10
Cu 17.8686 10.3164 10
Cu 7.65797 10.3164 10
Cu 10.2106 10.3164 10
Cu 12.7633 10.3164 10
Cu 15.3159 10.3164 10
Cu 0.198109 0.0930581 12.1447
Cu 2.86969 0.121337 11.9247
Cu 5.20757 0.190342 12.2245
Cu 14.0257 10.9885 12.0827
Cu 16.6011 10.9295 12.1058
Cu 1.39895 2.282 11.8676
Cu 3.9895 2.0111 11.8845
Cu 6.56286 2.15693 11.8207
Cu 8.94651 2.40255 11.8531
Cu 11.406 2.07007 12.0192
Cu 15.2046 4.36059 12.1272
Cu 5.19848 4.19253 12.1246
Cu 7.73253 4.42054 12.0989
Cu 10.349 4.56368 12.2239
Cu 12.903 4.39539 12.2619
Cu 3.9853 6.52096 12.191
Cu 6.46632 6.59619 11.7404
Cu 8.74858 6.48677 12.1204
Cu 11.4506 6.73319 11.9236
Cu 14.0121 6.87662 11.9751
Cu 5.03343 8.78071 12.0866
Cu 7.63151 8.95576 12.2046
Cu 10.244 8.80056 12.0384
Cu 12.8047 8.87218 12.0126
Cu 15.3809 8.95062 11.8248
Cu 1.15377 0.728761 14.2111
Cu 3.91958 0.817792 14.3606
Cu 6.45929 0.47027 14.5539
Cu 8.82672 0.657167 14.1258
Cu 11.539 0.450885 14.0445
Cu 2.88152 2.64101 14.2088
Cu 5.39845 2.77958 14.1183
Cu 7.7349 2.71563 14.1593
Cu 10.2029 2.95814 13.9843
Cu 13.0315 2.97957 14.1633
Cu 3.77165 5.11926 14.1382
Cu 6.39023 5.29879 14.0826
Cu 8.7754 5.15055 14.1997
Cu 11.4487 5.42538 14.0626
Cu 14.063 5.28137 14.2202
Cu 5.0168 7.68969 14.2077
Cu 7.58504 7.6423 14.151
Cu 10.0588 7.39114 14.1222
Cu 12.8926 7.34285 14.3477
Cu 15.2833 7.20031 13.8536
Cu 6.49272 9.62703 14.3113
Cu 9.38244 9.49256 14.3448
Cu 11.5877 9.32562 14.5699
Cu 14.0343 9.33462 14.0894
Cu 16.3458 9.60808 14.1474
Cu 12.6664 1.56943 16.254
Cu 2.33911 1.51498 16.493
Cu 5.04253 1.37154 16.6605
Cu 7.50938 1.50937 16.5106
Cu 10.2273 1.47586 15.8477
Cu 13.857 3.6893 16.2558
Cu 3.96588 3.67444 16.2355
Cu 6.15047 3.83234 16.2179
Cu 8.89943 3.61071 16.1538
Cu 11.3243 3.62273 15.9926
Cu 15.1442 6.07097 15.9431
Cu 4.97537 6.06596 16.4395
Cu 7.9738 6.01461 16.3817
Cu 10.5108 5.74285 16.2684
Cu 12.6437 5.80575 16.4953
Cu 16.5224 8.28622 16.2718
Cu 6.39805 8.0744 16.3212
Cu 8.86158 8.11044 16.3996
Cu 11.3948 8.11852 16.5655
Cu 13.8365 8.02564 16.4763
Cu 18.0427 10.3937 16.3315
Cu 7.58263 10.3252 16.2192
Cu 10.0623 10.353 16.5711
Cu 12.6392 10.3466 16.4162
Cu 15.3073 10.2708 16.4001
Cu 12.6617 0.22414 18.6229
Cu 2.30093 0.111498 18.5132
Cu 11.2705 10.8842 18.4194
Cu 14.1306 10.898 18.3812
Cu 10.4047 0.362548 18.3393
Cu 14.1517 2.44865 18.8552
Cu 3.86004 2.3808 18.6484
Cu 6.59725 1.96666 18.8767
Cu 8.81315 2.49137 18.4812
Cu 11.6226 2.32093 18.1719
Cu 15.3852 4.74461 18.3273
Cu 5.06534 4.53924 18.4416
Cu 7.6607 4.51449 18.4981
Cu 10.1386 4.65472 18.2629