ITEM: TIMESTEP
0
ITEM: NUMBER OF ATOMS
130
ITEM: BOX BOUNDS xy xz yz pp pp ff
0.0000000000000000e+00 1.9144916100600000e+01 6.3816387001999999e+00
0.0000000000000000e+00 1.1053322464300001e+01 0.0000000000000000e+00
0.0000000000000000e+00 3.2336937887100000e+01 0.0000000000000000e+00
ITEM: ATOMS id type xs ys zs
2 1 0.133333 0.133333 0.309244
3 1 0.333333 0.133333 0.309244
4 1 0.533333 0.133333 0.309244
7 1 0.133333 0.333333 0.309244
8 1 0.333333 0.333333 0.309244
9 1 0.533333 0.333333 0.309244
12 1 0.133333 0.533333 0.309244
13 1 0.333333 0.533333 0.309244
17 1 0.133333 0.733333 0.309244
18 1 0.333333 0.733333 0.309244
22 1 0.133333 0.933333 0.309244
26 1 0 0 0.373698
27 1 0.2 0 0.373698
28 1 0.4 0 0.373698
29 1 0.6 0 0.373698
31 1 1.26239e-10 0.2 0.373698
32 1 0.2 0.2 0.373698
33 1 0.4 0.2 0.373698
34 1 0.6 0.2 0.373698
37 1 0.2 0.4 0.373698
38 1 0.4 0.4 0.373698
42 1 0.2 0.6 0.373698
43 1 0.4 0.6 0.373698
46 1 5.26026e-11 0.8 0.373698
47 1 0.2 0.8 0.373698
51 1 0.0666667 0.0666667 0.438151
52 1 0.266667 0.0666667 0.438151
53 1 0.466667 0.0666667 0.438151
54 1 0.666667 0.0666667 0.438151
56 1 0.0666667 0.266667 0.438151
57 1 0.266667 0.266667 0.438151
58 1 0.466667 0.266667 0.438151
61 1 0.0666667 0.466667 0.438151
62 1 0.266667 0.466667 0.438151
63 1 0.466667 0.466667 0.438151
66 1 0.0666667 0.666667 0.438151
67 1 0.266667 0.666667 0.438151
71 1 0.0666667 0.866667 0.438151
72 1 0.266667 0.866667 0.438151
1 1 0.933333 0.133333 0.309244
5 1 0.733333 0.133333 0.309244
6 1 0.933333 0.333333 0.309244
10 1 0.733333 0.333333 0.309244
11 1 0.933333 0.533333 0.309244
14 1 0.533333 0.533333 0.309244
15 1 0.733333 0.533333 0.309244
16 1 0.933333 0.733333 0.309244
19 1 0.533333 0.733333 0.309244
20 1 0.733333 0.733333 0.309244
21 1 0.933333 0.933333 0.309244
23 1 0.333333 0.933333 0.309244
24 1 0.533333 0.933333 0.309244
25 1 0.733333 0.933333 0.309244
30 1 0.8 0 0.373698
35 1 0.8 0.2 0.373698
36 1 1 0.4 0.373698
39 1 0.6 0.4 0.373698
40 1 0.8 0.4 0.373698
41 1 1 0.6 0.373698
44 1 0.6 0.6 0.373698
45 1 0.8 0.6 0.373698
48 1 0.4 0.8 0.373698
49 1 0.6 0.8 0.373698
50 1 0.8 0.8 0.373698
55 1 0.866667 0.0666667 0.438151
59 1 0.666667 0.266667 0.438151
60 1 0.866667 0.266667 0.438151
64 1 0.666667 0.466667 0.438151
65 1 0.866667 0.466667 0.438151
68 1 0.466667 0.666667 0.438151
69 1 0.666667 0.666667 0.438151
70 1 0.866667 0.666667 0.438151
73 1 0.466667 0.866667 0.438151
74 1 0.666667 0.866667 0.438151
75 1 0.866667 0.866667 0.438151
129 3 0.235899 0.0968833 0.686763
130 3 0.0803998 0.210717 0.686763
77 1 0.133333 0.133333 0.502605
78 1 0.333333 0.133333 0.502605
79 1 0.533333 0.133333 0.502605
82 1 0.133333 0.333333 0.502605
83 1 0.333333 0.333333 0.502605
84 1 0.533333 0.333333 0.502605
87 1 0.133333 0.533333 0.502605
88 1 0.333333 0.533333 0.502605
92 1 0.133333 0.733333 0.502605
93 1 0.333333 0.733333 0.502605
97 1 0.133333 0.933333 0.502605
101 1 0 0 0.567059
102 1 0.2 0 0.567059
103 1 0.4 0 0.567059
104 1 0.6 0 0.567059
106 1 1.26239e-10 0.2 0.567059
107 1 0.2 0.2 0.567059
108 1 0.4 0.2 0.567059
109 1 0.6 0.2 0.567059
112 1 0.2 0.4 0.567059
113 1 0.4 0.4 0.567059
117 1 0.2 0.6 0.567059
118 1 0.4 0.6 0.567059
121 1 5.26026e-11 0.8 0.567059
122 1 0.2 0.8 0.567059
126 2 0.158149 0.1538 0.706218
127 3 0.178982 0.210717 0.725673
128 3 0.137316 0.0968833 0.725673
76 1 0.933333 0.133333 0.502605
80 1 0.733333 0.133333 0.502605
81 1 0.933333 0.333333 0.502605
85 1 0.733333 0.333333 0.502605
86 1 0.933333 0.533333 0.502605
89 1 0.533333 0.533333 0.502605
90 1 0.733333 0.533333 0.502605
91 1 0.933333 0.733333 0.502605
94 1 0.533333 0.733333 0.502605
95 1 0.733333 0.733333 0.502605
96 1 0.933333 0.933333 0.502605
98 1 0.333333 0.933333 0.502605
99 1 0.533333 0.933333 0.502605
100 1 0.733333 0.933333 0.502605
105 1 0.8 0 0.567059
110 1 0.8 0.2 0.567059
111 1 1 0.4 0.567059
114 1 0.6 0.4 0.567059
115 1 0.8 0.4 0.567059
116 1 1 0.6 0.567059
119 1 0.6 0.6 0.567059
120 1 0.8 0.6 0.567059
123 1 0.4 0.8 0.567059
124 1 0.6 0.8 0.567059
125 1 0.8 0.8 0.567059
ITEM: TIMESTEP
200
ITEM: NUMBER OF ATOMS
130
ITEM: BOX BOUNDS xy xz yz pp pp ff
0.0000000000000000e+00 1.9144916100600000e+01 6.3816387001999999e+00
0.0000000000000000e+00 1.1053322464300001e+01 0.0000000000000000e+00
0.0000000000000000e+00 3.2336937887100000e+01 0.0000000000000000e+00
ITEM: ATOMS id type xs ys zs
2 1 0.133333 0.133333 0.309244
3 1 0.333333 0.133333 0.309244
4 1 0.533333 0.133333 0.309244
7 1 0.133333 0.333333 0.309244
8 1 0.333333 0.333333 0.309244
9 1 0.533333 0.333333 0.309244
12 1 0.133333 0.533333 0.309244
13 1 0.333333 0.533333 0.309244
17 1 0.133333 0.733333 0.309244
18 1 0.333333 0.733333 0.309244
22 1 0.133333 0.933333 0.309244
26 1 0.0210256 0.973483 0.374928
27 1 0.190701 0.0115614 0.370319
28 1 0.425765 0.019109 0.371357
29 1 0.625229 0.0222019 0.379036
31 1 0.99658 0.20319 0.370686
32 1 0.181284 0.211978 0.366949
33 1 0.410076 0.217584 0.36834
34 1 0.607079 0.210333 0.3751
37 1 0.197553 0.383059 0.37393
38 1 0.395067 0.407453 0.373438
42 1 0.199889 0.569792 0.376443
43 1 0.399527 0.611321 0.372597
46 1 0.0237725 0.768954 0.37147
47 1 0.202438 0.78682 0.373088
51 1 0.0689361 0.0743192 0.437211
52 1 0.26879 0.049187 0.432213
53 1 0.479743 0.0628241 0.437785
54 1 0.657244 0.0840875 0.447902
56 1 0.0464625 0.271141 0.435651
57 1 0.25013 0.264851 0.44102
58 1 0.449042 0.271669 0.443432
61 1 0.0579867 0.476599 0.442811
62 1 0.256048 0.455069 0.442796
63 1 0.441824 0.464436 0.440313
66 1 0.0888226 0.676873 0.441908
67 1 0.289621 0.669302 0.435798
71 1 0.07917 0.866683 0.435839
72 1 0.298371 0.842584 0.439301
1 1 0.933333 0.133333 0.309244
5 1 0.733333 0.133333 0.309244
6 1 0.933333 0.333333 0.309244
10 1 0.733333 0.333333 0.309244
11 1 0.933333 0.533333 0.309244
14 1 0.533333 0.533333 0.309244
15 1 0.733333 0.533333 0.309244
16 1 0.933333 0.733333 0.309244
19 1 0.533333 0.733333 0.309244
20 1 0.733333 0.733333 0.309244
21 1 0.933333 0.933333 0.309244
23 1 0.333333 0.933333 0.309244
24 1 0.533333 0.933333 0.309244
25 1 0.733333 0.933333 0.309244
30 1 0.830786 0.979118 0.369578
35 1 0.801225 0.184276 0.369335
36 1 0.980339 0.40566 0.365766
39 1 0.587551 0.41206 0.369112
40 1 0.780858 0.402638 0.368831
41 1 0.997184 0.599435 0.379189
44 1 0.596591 0.607109 0.372215
45 1 0.791275 0.598173 0.369252
48 1 0.388012 0.81717 0.373298
49 1 0.589238 0.821428 0.369724
50 1 0.783417 0.813304 0.374317
55 1 0.838416 0.0846066 0.431201
59 1 0.653037 0.271187 0.438442
60 1 0.847998 0.267067 0.434909
64 1 0.662544 0.466905 0.433824
65 1 0.84537 0.482542 0.430406
68 1 0.48516 0.675065 0.440323
69 1 0.660536 0.685348 0.434074
70 1 0.876115 0.682171 0.44071
73 1 0.482538 0.870822 0.437419
74 1 0.673121 0.886538 0.444315
75 1 0.876972 0.86759 0.434911
129 3 0.206006 0.0539521 0.775138
130 3 0.140822 0.212306 0.775338
77 1 0.116863 0.140819 0.501595
78 1 0.340357 0.13829 0.498554
79 1 0.529815 0.123441 0.512517
82 1 0.141359 0.310429 0.507462
83 1 0.330754 0.331551 0.50402
84 1 0.534602 0.327536 0.505358
87 1 0.152056 0.503447 0.509971
88 1 0.325749 0.541163 0.49911
92 1 0.160378 0.723328 0.501509
93 1 0.358583 0.735759 0.513262
97 1 0.145273 0.933613 0.500425
101 1 0.00164878 0.987893 0.572465
102 1 0.20229 0.998673 0.573587
103 1 0.397073 0.00512261 0.576667
104 1 0.571338 0.0252921 0.584542
106 1 0.996105 0.188013 0.557318
107 1 0.170111 0.200577 0.573998
108 1 0.37364 0.209497 0.566498
109 1 0.608957 0.200357 0.572179
112 1 0.176242 0.396738 0.579139
113 1 0.43476 0.378379 0.566245
117 1 0.196493 0.585418 0.573211
118 1 0.393346 0.597845 0.571833
121 1 0.0165005 0.77196 0.559691
122 1 0.195089 0.815887 0.567563
126 2 0.150993 0.127133 0.754991
127 3 0.0535883 0.149281 0.761274
128 3 0.191244 0.103572 0.723591
76 1 0.933015 0.108822 0.491306
80 1 0.747987 0.11396 0.507354
81 1 0.941138 0.317013 0.495922
85 1 0.729425 0.332342 0.494584
86 1 0.932838 0.500762 0.503697
89 1 0.533926 0.519018 0.501529
90 1 0.715036 0.556393 0.490182
91 1 0.963967 0.711196 0.497189
94 1 0.535774 0.740235 0.503659
95 1 0.746019 0.73919 0.50831
96 1 0.937245 0.910594 0.498747
98 1 0.357086 0.929682 0.502877
99 1 0.539585 0.930029 0.504807
100 1 0.720135 0.953288 0.515576
105 1 0.818875 0.999363 0.57642
110 1 0.801235 0.194256 0.560962
111 1 0.978922 0.400455 0.573998
114 1 0.625672 0.385287 0.569737
115 1 0.80005 0.439498 0.551915
116 1 0.994582 0.58464 0.566826
119 1 0.578139 0.605985 0.566894
120 1 0.802074 0.607661 0.573383
123 1 0.381886 0.813137 0.584536
124 1 0.584944 0.80733 0.575052
125 1 0.802124 0.821999 0.583539
ITEM: TIMESTEP
400
ITEM: NUMBER OF ATOMS
130
ITEM: BOX BOUNDS xy xz yz pp pp ff
0.0000000000000000e+00 1.9144916100600000e+01 6.3816387001999999e+00
0.0000000000000000e+00 1.1053322464300001e+01 0.0000000000000000e+00
0.0000000000000000e+00 3.2336937887100000e+01 0.0000000000000000e+00
ITEM: ATOMS id type xs ys zs
2 1 0.133333 0.133333 0.309244
3 1 0.333333 0.133333 0.309244
4 1 0.533333 0.133333 0.309244
7 1 0.133333 0.333333 0.309244
8 1 0.333333 0.333333 0.309244
9 1 0.533333 0.333333 0.309244
12 1 0.133333 0.533333 0.309244
13 1 0.333333 0.533333 0.309244
17 1 0.133333 0.733333 0.309244
18 1 0.333333 0.733333 0.309244
22 1 0.133333 0.933333 0.309244
26 1 0.980185 1.00144 0.372076
27 1 0.220804 0.981058 0.373975
28 1 0.390432 0.991369 0.374081
29 1 0.58773 0.00418105 0.379566
31 1 0.00729185 0.197409 0.370975
32 1 0.208306 0.193438 0.376849
33 1 0.386508 0.19975 0.381084
34 1 0.58765 0.203002 0.375372
37 1 0.193479 0.421401 0.374969
38 1 0.390811 0.39835 0.375328
42 1 0.208614 0.624637 0.371322
43 1 0.412689 0.586799 0.37684
46 1 0.991258 0.807092 0.37835
47 1 0.220423 0.796639 0.378085
51 1 0.0595273 0.0674996 0.430485
52 1 0.256589 0.0908931 0.436565
53 1 0.447462 0.0896142 0.451174
54 1 0.669136 0.059329 0.448925
56 1 0.0757527 0.267898 0.437287
57 1 0.265059 0.267027 0.441888
58 1 0.457303 0.274481 0.440656
61 1 0.0544777 0.464173 0.449147
62 1 0.273834 0.454066 0.440846
63 1 0.48406 0.466359 0.43912
66 1 0.0697862 0.650322 0.438309
67 1 0.271625 0.651392 0.447417
71 1 0.0758518 0.871188 0.442491
72 1 0.252248 0.903001 0.447149
1 1 0.933333 0.133333 0.309244
5 1 0.733333 0.133333 0.309244
6 1 0.933333 0.333333 0.309244
10 1 0.733333 0.333333 0.309244
11 1 0.933333 0.533333 0.309244
14 1 0.533333 0.533333 0.309244
15 1 0.733333 0.533333 0.309244
16 1 0.933333 0.733333 0.309244
19 1 0.533333 0.733333 0.309244
20 1 0.733333 0.733333 0.309244
21 1 0.933333 0.933333 0.309244
23 1 0.333333 0.933333 0.309244
24 1 0.533333 0.933333 0.309244
25 1 0.733333 0.933333 0.309244
30 1 0.769289 0.0188787 0.374931
35 1 0.79102 0.212769 0.370539
36 1 0.0157199 0.399655 0.381049
39 1 0.610283 0.391518 0.372686
40 1 0.809795 0.402018 0.375518
41 1 0.999561 0.593389 0.369052
44 1 0.600459 0.598177 0.376987
45 1 0.801352 0.619294 0.372819
48 1 0.42708 0.796666 0.377409
49 1 0.607606 0.816371 0.374525
50 1 0.821309 0.79314 0.374885
55 1 0.889599 0.0535459 0.445106
59 1 0.676436 0.2523 0.436516
60 1 0.878645 0.262213 0.434885
64 1 0.672802 0.452924 0.439917
65 1 0.87478 0.458134 0.439847
68 1 0.467355 0.664777 0.441949
69 1 0.671093 0.687523 0.436638
70 1 0.876129 0.658919 0.439684
73 1 0.469216 0.875296 0.443715
74 1 0.688695 0.874266 0.447316
75 1 0.884741 0.855805 0.443987
129 3 0.207372 0.0485104 0.800223
130 3 0.044433 0.138058 0.804183
77 1 0.15819 0.108848 0.493171
78 1 0.3332 0.114842 0.512492
79 1 0.533586 0.145869 0.519612
82 1 0.109637 0.342047 0.511668
83 1 0.327102 0.325941 0.512707
84 1 0.534744 0.323263 0.503037
87 1 0.126821 0.529695 0.507284
88 1 0.343999 0.507857 0.512344
92 1 0.132267 0.74246 0.510158
93 1 0.342676 0.724396 0.507239
97 1 0.15804 0.91421 0.511666
101 1 0.995765 0.00552823 0.564473
102 1 0.191862 0.996748 0.571691
103 1 0.383775 -0.00159495 0.575937
104 1 0.597591 0.00568097 0.585878
106 1 0.994928 0.21284 0.564359
107 1 0.190919 0.192625 0.577076
108 1 0.379565 0.209374 0.583031
109 1 0.614408 0.197562 0.581159
112 1 0.188929 0.394341 0.57957
113 1 0.387229 0.383436 0.582305
117 1 0.201914 0.585888 0.576751
118 1 0.411386 0.558489 0.578839
121 1 0.991264 0.810647 0.578007
122 1 0.212586 0.761654 0.575481
126 2 0.139907 0.091085 0.82076
127 3 0.183996 0.13799 0.837573
128 3 0.121296 0.0410712 0.846769
76 1 0.954474 0.130707 0.503155
80 1 0.736709 0.135552 0.504569
81 1 0.91316 0.330158 0.494627
85 1 0.723674 0.322725 0.503596
86 1 0.908475 0.540263 0.514309
89 1 0.534391 0.542037 0.506838
90 1 0.719518 0.547585 0.491221
91 1 0.940398 0.717412 0.506992
94 1 0.536146 0.768684 0.500516
95 1 0.753212 0.725853 0.512061
96 1 0.942596 0.931902 0.511022
98 1 0.342186 0.910205 0.51999
99 1 0.538892 0.956866 0.518979
100 1 0.766029 0.90065 0.515649
105 1 0.799449 0.977405 0.581743
110 1 0.806591 0.208605 0.569731
111 1 0.992508 0.397603 0.574634
114 1 0.582123 0.406358 0.564162
115 1 0.769821 0.415915 0.559661
116 1 0.982525 0.610923 0.573828
119 1 0.594481 0.64291 0.561744
120 1 0.775384 0.61457 0.581931
123 1 0.410946 0.789514 0.589602
124 1 0.597253 0.820987 0.582741
125 1 0.799853 0.781608 0.591019
ITEM: TIMESTEP
600
ITEM: NUMBER OF ATOMS
130
ITEM: BOX BOUNDS xy xz yz pp pp ff
0.0000000000000000e+00 1.9144916100600000e+01 6.3816387001999999e+00
0.0000000000000000e+00 1.1053322464300001e+01 0.0000000000000000e+00
0.0000000000000000e+00 3.2336937887100000e+01 0.0000000000000000e+00
ITEM: ATOMS id type xs ys zs
2 1 0.133333 0.133333 0.309244
3 1 0.333333 0.133333 0.309244
4 1 0.533333 0.133333 0.309244
7 1 0.133333 0.333333 0.309244
8 1 0.333333 0.333333 0.309244
9 1 0.533333 0.333333 0.309244
12 1 0.133333 0.533333 0.309244
13 1 0.333333 0.533333 0.309244
17 1 0.133333 0.733333 0.309244
18 1 0.333333 0.733333 0.309244
22 1 0.133333 0.933333 0.309244
26 1 0.999593 0.0133143 0.385323
27 1 0.195224 0.0166354 0.376668
28 1 0.409602 0.98786 0.371986
29 1 0.601145 0.00342266 0.384587
31 1 0.996292 0.206471 0.374542
32 1 0.203039 0.210126 0.370409
33 1 0.383124 0.203988 0.385782
34 1 0.580704 0.206711 0.372818
37 1 0.218288 0.400494 0.383444
38 1 0.410277 0.409743 0.374364
42 1 0.206783 0.600619 0.38219
43 1 0.414261 0.593346 0.379262
46 1 0.00601672 0.827184 0.377093
47 1 0.183012 0.828257 0.388172
51 1 0.0942017 0.053424 0.447557
52 1 0.292416 0.07368 0.444164
53 1 0.490842 0.0688287 0.4535
54 1 0.677091 0.0560068 0.446462
56 1 0.0520522 0.261765 0.454833
57 1 0.274693 0.266899 0.451343
58 1 0.492243 0.251968 0.440837
61 1 0.0690095 0.469671 0.438031
62 1 0.283508 0.457734 0.449018
63 1 0.466121 0.474854 0.44868
66 1 0.0591541 0.671456 0.442902
67 1 0.263326 0.677339 0.44623
71 1 0.0728934 0.84514 0.452497
72 1 0.289215 0.859862 0.451897
1 1 0.933333 0.133333 0.309244
5 1 0.733333 0.133333 0.309244
6 1 0.933333 0.333333 0.309244
10 1 0.733333 0.333333 0.309244
11 1 0.933333 0.533333 0.309244
14 1 0.533333 0.533333 0.309244
15 1 0.733333 0.533333 0.309244
16 1 0.933333 0.733333 0.309244
19 1 0.533333 0.733333 0.309244
20 1 0.733333 0.733333 0.309244
21 1 0.933333 0.933333 0.309244
23 1 0.333333 0.933333 0.309244
24 1 0.533333 0.933333 0.309244
25 1 0.733333 0.933333 0.309244
30 1 0.80141 0.992323 0.379921
35 1 0.782032 0.195509 0.373385
36 1 0.00948821 0.407376 0.37694
39 1 0.60624 0.396101 0.380145
40 1 0.820853 0.39231 0.37175
41 1 0.00232446 0.630208 0.376371
44 1 0.615541 0.589805 0.373313
45 1 0.826675 0.587078 0.377971
48 1 0.390653 0.783792 0.381187
49 1 0.61458 0.772102 0.379739
50 1 0.781819 0.809923 0.381826
55 1 0.869309 0.05932 0.450774
59 1 0.672156 0.259916 0.4417
60 1 0.871893 0.246017 0.433948
64 1 0.681864 0.452353 0.439513
65 1 0.875417 0.462649 0.444207
68 1 0.467892 0.663291 0.450439
69 1 0.659179 0.647825 0.443388
70 1 0.85014 0.676266 0.452267
73 1 0.465571 0.880696 0.440979
74 1 0.651553 0.851091 0.447543
75 1 0.858102 0.865085 0.448086
129 3 0.16151 0.956844 0.902682
130 3 0.0792974 0.115643 0.918355
77 1 0.139031 0.105069 0.519746
78 1 0.339822 0.134266 0.518642
79 1 0.529311 0.134323 0.516881
82 1 0.14171 0.309382 0.511192
83 1 0.332989 0.335053 0.518098
84 1 0.530551 0.322659 0.510167
87 1 0.142268 0.515417 0.509305
88 1 0.336316 0.526034 0.51973
92 1 0.125961 0.724308 0.517138
93 1 0.329208 0.710215 0.513474
97 1 0.115066 0.916413 0.512171
101 1 0.991921 0.0132006 0.583355
102 1 0.197544 0.000527158 0.584001
103 1 0.412587 0.98449 0.590366
104 1 0.622053 0.987711 0.578197
106 1 -0.000107691 0.20929 0.578433
107 1 0.206501 0.204313 0.578519
108 1 0.427902 0.159982 0.585521
109 1 0.582639 0.196755 0.580507
112 1 0.17172 0.41112 0.570972
113 1 0.398013 0.391677 0.579711
117 1 0.191848 0.602481 0.580037
118 1 0.388298 0.62075 0.578169
121 1 0.0123113 0.788958 0.587324
122 1 0.188538 0.820729 0.578023
126 2 0.130077 0.0537293 0.887578
127 3 0.0392125 0.0929395 0.866455
128 3 0.222534 0.0445516 0.873334
76 1 0.911166 0.152016 0.509345
80 1 0.731633 0.127682 0.520489
81 1 0.923806 0.350234 0.524099
85 1 0.740245 0.340908 0.504335
86 1 0.95349 0.540509 0.510306
89 1 0.537837 0.5207 0.504569
90 1 0.750766 0.523323 0.516958
91 1 0.919371 0.731539 0.51456
94 1 0.525102 0.736802 0.504401
95 1 0.719583 0.741316 0.521067
96 1 0.928886 0.935388 0.51401
98 1 0.321699 0.939265 0.516481
99 1 0.528867 0.924341 0.515894
100 1 0.717742 0.946677 0.513811
105 1 0.803621 0.0182523 0.579272
110 1 0.793199 0.201423 0.574595
111 1 0.991704 0.409108 0.585262
114 1 0.603708 0.400918 0.566362
115 1 0.794715 0.394864 0.585973
116 1 0.00126254 0.604546 0.58207
119 1 0.593405 0.584934 0.571988
120 1 0.801068 0.593235 0.578313
123 1 0.381798 0.797803 0.574154
124 1 0.599702 0.788732 0.582175
125 1 0.799934 0.809184 0.574836
ITEM: TIMESTEP
800
ITEM: NUMBER OF ATOMS
130
ITEM: BOX BOUNDS xy xz yz pp pp ff
0.0000000000000000e+00 1.9144916100600000e+01 6.3816387001999999e+00
0.0000000000000000e+00 1.1053322464300001e+01 0.0000000000000000e+00
0.0000000000000000e+00 3.2336937887100000e+01 0.0000000000000000e+00
ITEM: ATOMS id type xs ys zs
2 1 0.133333 0.133333 0.309244
3 1 0.333333 0.133333 0.309244
4 1 0.533333 0.133333 0.309244
7 1 0.133333 0.333333 0.309244
8 1 0.333333 0.333333 0.309244
9 1 0.533333 0.333333 0.309244
12 1 0.133333 0.533333 0.309244
13 1 0.333333 0.533333 0.309244
17 1 0.133333 0.733333 0.309244
18 1 0.333333 0.733333 0.309244
22 1 0.133333 0.933333 0.309244
26 1 0.00298424 0.0236199 0.388343
27 1 0.199729 0.00179409 0.383635
28 1 0.391593 0.0169816 0.378511
29 1 0.636181 0.984955 0.377588
31 1 0.0116411 0.208242 0.383968
32 1 0.195766 0.208757 0.391075
33 1 0.441778 0.172955 0.374664
34 1 0.623465 0.191329 0.378159
37 1 0.193405 0.400329 0.374274
38 1 0.397893 0.373676 0.375953
42 1 0.189487 0.603423 0.382683
43 1 0.378879 0.627338 0.373101
46 1 0.00540878 0.774247 0.37584
47 1 0.204821 0.797521 0.379845
51 1 0.0812667 0.061072 0.456439
52 1 0.262153 0.061417 0.444567
53 1 0.468041 0.0300065 0.438723
54 1 0.658734 0.0956068 0.445438
56 1 0.0723713 0.254546 0.449966
57 1 0.282325 0.258373 0.448228
58 1 0.456292 0.276421 0.44966
61 1 0.0507815 0.467703 0.440165
62 1 0.258122 0.459851 0.446307
63 1 0.459139 0.459965 0.438527
66 1 0.0829295 0.658548 0.455345
67 1 0.257591 0.654456 0.447298
71 1 0.0469191 0.880626 0.451693
72 1 0.258144 0.867077 0.442311
1 1 0.933333 0.133333 0.309244
5 1 0.733333 0.133333 0.309244
6 1 0.933333 0.333333 0.309244
10 1 0.733333 0.333333 0.309244
11 1 0.933333 0.533333 0.309244
14 1 0.533333 0.533333 0.309244
15 1 0.733333 0.533333 0.309244
16 1 0.933333 0.733333 0.309244
19 1 0.533333 0.733333 0.309244
20 1 0.733333 0.733333 0.309244
21 1 0.933333 0.933333 0.309244
23 1 0.333333 0.933333 0.309244
24 1 0.533333 0.933333 0.309244
25 1 0.733333 0.933333 0.309244
30 1 0.829598 0.00363763 0.375255
35 1 0.813843 0.20504 0.379339
36 1 0.00406999 0.393643 0.370307
39 1 0.591195 0.39357 0.370866
40 1 0.777392 0.412555 0.377933
41 1 1.00201 0.583457 0.37781
44 1 0.583861 0.608726 0.377201
45 1 0.787156 0.580709 0.38661
48 1 0.392729 0.821329 0.369072
49 1 0.582769 0.811884 0.377028
50 1 0.797758 0.7846 0.379895
55 1 0.846937 0.0813237 0.445324
59 1 0.657284 0.280426 0.452831
60 1 0.866451 0.2566 0.450928
64 1 0.668214 0.461424 0.445139
65 1 0.857516 0.440313 0.457423
68 1 0.476347 0.65139 0.439215
69 1 0.680555 0.660848 0.450109
70 1 0.884424 0.652272 0.447159
73 1 0.468215 0.837999 0.444083
74 1 0.651571 0.862711 0.446619
75 1 0.849178 0.873444 0.439802
129 3 0.109144 0.941396 0.883391
130 3 0.0637163 0.0918369 0.881548
77 1 0.132736 0.150196 0.531838
78 1 0.335958 0.127005 0.512946
79 1 0.536741 0.125715 0.509036
82 1 0.14787 0.332824 0.512762
83 1 0.335434 0.325901 0.515819
84 1 0.544347 0.33614 0.51747
87 1 0.149146 0.526097 0.513356
88 1 0.33207 0.541657 0.508669
92 1 0.132012 0.744472 0.516503
93 1 0.311138 0.755722 0.517191
97 1 0.138455 0.950489 0.532947
101 1 -0.00502311 0.0120642 0.586976
102 1 0.204162 0.0113178 0.594275
103 1 0.402762 1.00032 0.581159
104 1 0.592727 0.971598 0.578201
106 1 1.00773 0.18391 0.607437
107 1 0.201244 0.19095 0.596398
108 1 0.381204 0.214934 0.57701
109 1 0.610208 0.1777 0.57742
112 1 0.217158 0.393882 0.582024
113 1 0.414646 0.404423 0.583043
117 1 0.202906 0.595623 0.581947
118 1 0.397331 0.602502 0.579478
121 1 0.999364 0.814465 0.57916
122 1 0.204923 0.79561 0.583742
126 2 0.116303 0.0148025 0.863764
127 3 0.11335 0.0169963 0.833752
128 3 0.201725 -0.00196777 0.868431
76 1 0.937803 0.11649 0.514177
80 1 0.733093 0.139411 0.508162
81 1 0.932582 0.329676 0.524133
85 1 0.756095 0.333797 0.514911
86 1 0.939058 0.511822 0.512285
89 1 0.527941 0.526344 0.512724
90 1 0.726643 0.543963 0.519762
91 1 0.948699 0.725737 0.505364
94 1 0.534823 0.695256 0.520501
95 1 0.741428 0.724219 0.510207
96 1 0.898071 0.95592 0.521178
98 1 0.307772 0.940781 0.505008
99 1 0.531582 0.894118 0.515321
100 1 0.710903 0.928864 0.504881
105 1 0.794003 0.000319618 0.588927
110 1 0.806757 0.208713 0.582969
111 1 0.0168468 0.375424 0.596081
114 1 0.612295 0.383307 0.585031
115 1 0.808623 0.417039 0.593081
116 1 1.0132 0.591125 0.576513
119 1 0.602588 0.5993 0.600941
120 1 0.809394 0.60854 0.58019
123 1 0.39202 0.82331 0.572936
124 1 0.601055 0.768031 0.575746
125 1 0.808108 0.809866 0.584377
ITEM: TIMESTEP
1000
ITEM: NUMBER OF ATOMS
130
ITEM: BOX BOUNDS xy xz yz pp pp ff
0.0000000000000000e+00 1.9144916100600000e+01 6.3816387001999999e+00
0.0000000000000000e+00 1.1053322464300001e+01 0.0000000000000000e+00
0.0000000000000000e+00 3.2336937887100000e+01 0.0000000000000000e+00
ITEM: ATOMS id type xs ys zs
2 1 0.133333 0.133333 0.309244
3 1 0.333333 0.133333 0.309244
4 1 0.533333 0.133333 0.309244
7 1 0.133333 0.333333 0.309244
8 1 0.333333 0.333333 0.309244
9 1 0.533333 0.333333 0.309244
12 1 0.133333 0.533333 0.309244
13 1 0.333333 0.533333 0.309244
17 1 0.133333 0.733333 0.309244
18 1 0.333333 0.733333 0.309244
22 1 0.133333 0.933333 0.309244
26 1 -0.00141177 0.985771 0.37979
27 1 0.192026 0.0111594 0.36814
28 1 0.39726 0.982703 0.368124
29 1 0.607351 1.00033 0.372176
31 1 0.00808583 0.187759 0.384187
32 1 0.206961 0.187972 0.372341
33 1 0.408665 0.188433 0.383215
34 1 0.620187 0.200009 0.378128
37 1 0.208954 0.379991 0.37536
38 1 0.403997 0.395508 0.378497
42 1 0.205639 0.580192 0.369857
43 1 0.397305 0.580203 0.375916
46 1 0.988198 0.813958 0.377528
47 1 0.176717 0.794339 0.367724
51 1 0.0545992 0.0581222 0.449509
52 1 0.256911 0.0541611 0.443072
53 1 0.459936 0.0698986 0.449391
54 1 0.647241 0.0499916 0.442076
56 1 0.0682547 0.238415 0.464496
57 1 0.280729 0.24824 0.442782
58 1 0.471533 0.268631 0.444807
61 1 0.077655 0.448452 0.450829
62 1 0.258307 0.470894 0.437218
63 1 0.454688 0.468452 0.44279
66 1 0.0422781 0.667092 0.431243
67 1 0.252487 0.673959 0.437802
71 1 0.0564329 0.854838 0.446915
72 1 0.246166 0.86521 0.438091
1 1 0.933333 0.133333 0.309244
5 1 0.733333 0.133333 0.309244
6 1 0.933333 0.333333 0.309244
10 1 0.733333 0.333333 0.309244
11 1 0.933333 0.533333 0.309244
14 1 0.533333 0.533333 0.309244
15 1 0.733333 0.533333 0.309244
16 1 0.933333 0.733333 0.309244
19 1 0.533333 0.733333 0.309244
20 1 0.733333 0.733333 0.309244
21 1 0.933333 0.933333 0.309244
23 1 0.333333 0.933333 0.309244
24 1 0.533333 0.933333 0.309244
25 1 0.733333 0.933333 0.309244
30 1 0.796801 0.993097 0.373206
35 1 0.806976 0.197996 0.377849
36 1 0.964282 0.400463 0.386499
39 1 0.593982 0.409783 0.380303
40 1 0.777847 0.407361 0.388539
41 1 0.996573 0.583125 0.374219
44 1 0.58814 0.620263 0.374879
45 1 0.783499 0.61527 0.380975
48 1 0.386169 0.794575 0.384182
49 1 0.608125 0.801006 0.374938
50 1 0.817469 0.779109 0.370035
55 1 0.851333 0.0686251 0.443902
59 1 0.657682 0.279548 0.441813
60 1 0.8565 0.288845 0.458704
64 1 0.653259 0.478598 0.452006
65 1 0.867925 0.484517 0.449953
68 1 0.446714 0.664943 0.445228
69 1 0.656798 0.663199 0.454595
70 1 0.86973 0.653735 0.440336
73 1 0.459081 0.86034 0.444715
74 1 0.69105 0.852734 0.438338
75 1 0.864086 0.877188 0.444984
129 3 0.0439824 0.0574185 0.806471
130 3 0.0924401 0.015865 0.747937
77 1 0.150574 0.124458 0.532319
78 1 0.329279 0.149054 0.505536
79 1 0.535925 0.116702 0.507697
82 1 0.128455 0.337821 0.526171
83 1 0.324782 0.350291 0.506712
84 1 0.515399 0.334648 0.514034
87 1 0.137439 0.539408 0.506151
88 1 0.329902 0.531886 0.511705
92 1 0.131201 0.738697 0.510676
93 1 0.34342 0.714483 0.507181
97 1 0.143894 0.913545 0.533523
101 1 0.987504 0.985594 0.590156
102 1 0.196203 0.990767 0.605077
103 1 0.354611 0.0303119 0.564726
104 1 0.608473 0.0028096 0.566986
106 1 0.0123839 0.208612 0.60976
107 1 0.208452 0.217998 0.601837
108 1 0.427552 0.192229 0.571167
109 1 0.60686 0.21292 0.575264
112 1 0.200409 0.402442 0.589551
113 1 0.395878 0.404924 0.577333
117 1 0.214803 0.601322 0.572711
118 1 0.446394 0.58331 0.575019
121 1 -0.000232525 0.790501 0.575859
122 1 0.233017 0.762916 0.594685
126 2 0.104587 0.974267 0.779391
127 3 0.114937 0.877938 0.777119
128 3 0.197746 0.95596 0.7823
76 1 0.957646 0.142535 0.528233
80 1 0.723026 0.133148 0.51082
81 1 0.943146 0.324402 0.523777
85 1 0.702382 0.325667 0.528424
86 1 0.934584 0.535661 0.518345
89 1 0.540002 0.524752 0.508302
90 1 0.728282 0.514595 0.523017
91 1 0.938911 0.728782 0.514557
94 1 0.525524 0.74388 0.515319
95 1 0.745229 0.719953 0.5139
96 1 0.955169 0.925998 0.508705
98 1 0.334604 0.92336 0.509942
99 1 0.534942 0.933928 0.503789
100 1 0.763136 0.921051 0.513807
105 1 0.791442 0.991544 0.58759
110 1 0.80771 0.18886 0.584471
111 1 0.008427 0.402862 0.581678
114 1 0.619276 0.404709 0.595758
115 1 0.806696 0.390371 0.587584
116 1 0.00147901 0.600792 0.582191
119 1 0.612461 0.607154 0.59356
120 1 0.816757 0.592698 0.586867
123 1 0.400765 0.796464 0.58382
124 1 0.610324 0.80315 0.575297
125 1 0.808794 0.7889 0.579624
ITEM: TIMESTEP
1200
ITEM: NUMBER OF ATOMS
130
ITEM: BOX BOUNDS xy xz yz pp pp ff
0.0000000000000000e+00 1.9144916100600000e+01 6.3816387001999999e+00
0.0000000000000000e+00 1.1053322464300001e+01 0.0000000000000000e+00
0.0000000000000000e+00 3.2336937887100000e+01 0.0000000000000000e+00
ITEM: ATOMS id type xs ys zs
2 1 0.133333 0.133333 0.309244
3 1 0.333333 0.133333 0.309244
4 1 0.533333 0.133333 0.309244
7 1 0.133333 0.333333 0.309244
8 1 0.333333 0.333333 0.309244
9 1 0.533333 0.333333 0.309244
12 1 0.133333 0.533333 0.309244
13 1 0.333333 0.533333 0.309244
17 1 0.133333 0.733333 0.309244
18 1 0.333333 0.733333 0.309244
22 1 0.133333 0.933333 0.309244
27 1 0.198198 0.978298 0.38283
29 1 0.575555 -0.00106093 0.374862
31 1 0.984588 0.203198 0.387844
32 1 0.190139 0.196295 0.374764
33 1 0.374522 0.209041 0.368717
34 1 0.577172 0.191644 0.368966
37 1 0.187076 0.409741 0.375613
38 1 0.408241 0.409433 0.37437
42 1 0.197065 0.599065 0.37338
43 1 0.416357 0.592608 0.381123
47 1 0.199328 0.803072 0.379551
51 1 0.0488113 0.0512964 0.451774
52 1 0.254171 0.0826584 0.433101
53 1 0.463225 0.0670507 0.434936
54 1 0.676337 0.0562942 0.443981
56 1 0.068545 0.227685 0.467045
57 1 0.208228 0.284975 0.444179
58 1 0.472447 0.247275 0.435461
61 1 0.044113 0.476736 0.4394
62 1 0.276886 0.444054 0.441169
63 1 0.478106 0.469303 0.443912
66 1 0.0653655 0.665803 0.437972
67 1 0.266001 0.655077 0.439691
71 1 0.0565155 0.868897 0.429629
72 1 0.27429 0.851312 0.450721
41 1 -0.000610343 0.591658 0.372072
26 1 0.991812 0.00580788 0.371772
28 1 0.380886 1.0031 0.376339
46 1 0.0056187 0.782313 0.369999
1 1 0.933333 0.133333 0.309244
5 1 0.733333 0.133333 0.309244
6 1 0.933333 0.333333 0.309244
10 1 0.733333 0.333333 0.309244
11 1 0.933333 0.533333 0.309244
14 1 0.533333 0.533333 0.309244
15 1 0.733333 0.533333 0.309244
16 1 0.933333 0.733333 0.309244
19 1 0.533333 0.733333 0.309244
20 1 0.733333 0.733333 0.309244
21 1 0.933333 0.933333 0.309244
23 1 0.333333 0.933333 0.309244
24 1 0.533333 0.933333 0.309244
25 1 0.733333 0.933333 0.309244
30 1 0.781568 0.00743172 0.379083
35 1 0.778293 0.202621 0.375259
36 1 0.0337782 0.370243 0.386104
39 1 0.610077 0.380053 0.381155
40 1 0.838013 0.389785 0.381479
44 1 0.603528 0.584802 0.380708
45 1 0.816828 0.586441 0.371096
48 1 0.415116 0.795714 0.371227
49 1 0.598507 0.777866 0.377248
50 1 0.771782 0.823134 0.384011
55 1 0.878181 0.0601955 0.43829
59 1 0.679901 0.251978 0.447536
60 1 0.860801 0.270217 0.46402
64 1 0.654716 0.477038 0.447484
65 1 0.854351 0.463021 0.452477
68 1 0.461594 0.678598 0.444998
69 1 0.660995 0.672653 0.441901
70 1 0.870926 0.663229 0.455015
73 1 0.459015 0.872673 0.448089
74 1 0.638743 0.872974 0.442519
75 1 0.872607 0.850129 0.444858
130 3 0.079729 0.864911 0.676021
77 1 0.164101 0.0978304 0.531078
78 1 0.337456 0.105727 0.501574
79 1 0.527845 0.1417 0.505894
82 1 0.131749 0.322976 0.520902
83 1 0.324139 0.334336 0.50354
84 1 0.530642 0.33025 0.501689
87 1 0.137666 0.528471 0.504417
88 1 0.345652 0.517701 0.506306
92 1 0.146124 0.724693 0.500482
93 1 0.338537 0.727809 0.512889
97 1 0.14761 0.917249 0.519511
102 1 0.195995 0.996541 0.593101
103 1 0.380122 0.00514132 0.577536
104 1 0.597595 0.0203493 0.574151
106 1 0.0260076 0.193862 0.579165
107 1 0.202678 0.205842 0.585435
108 1 0.377059 0.215691 0.568904
109 1 0.600969 0.213989 0.579597
112 1 0.20085 0.415439 0.576239
113 1 0.414002 0.396555 0.570004
117 1 0.194916 0.597082 0.571084
118 1 0.380457 0.608427 0.575095
121 1 0.0329734 0.789604 0.574811