
     Program PWSCF v.7.2 starts on 30Dec2023 at 13:21:59 

     This program is part of the open-source Quantum ESPRESSO suite
     for quantum simulation of materials; please cite
         "P. Giannozzi et al., J. Phys.:Condens. Matter 21 395502 (2009);
         "P. Giannozzi et al., J. Phys.:Condens. Matter 29 465901 (2017);
         "P. Giannozzi et al., J. Chem. Phys. 152 154105 (2020);
          URL http://www.quantum-espresso.org", 
     in publications or presentations arising from this work. More details at
     http://www.quantum-espresso.org/quote

     Parallel version (MPI & OpenMP), running on       4 processor cores
     Number of MPI processes:                 4
     Threads/MPI process:                     1

     MPI processes distributed on     1 nodes
     504710 MiB available memory on the printing compute node when the environment starts
 
     Reading input from input_0000.inp

     Current dimensions of program PWSCF are:
     Max number of different atomic species (ntypx) = 10
     Max number of k-points (npk) =  40000
     Max angular momentum in pseudopotentials (lmaxx) =  4
     file O.pbe-n-kjpaw_psl.0.1.UPF: wavefunction(s)  2P renormalized

     gamma-point specific algorithms are used
 
     R & G space division:  proc/nbgrp/npool/nimage =       4
     Subspace diagonalization in iterative solution of the eigenvalue problem:
     a serial algorithm will be used

 
     Parallelization info
     --------------------
     sticks:   dense  smooth     PW     G-vecs:    dense   smooth      PW
     Min        6485    4324   1079              2728975  1485363  185656
     Max        6486    4326   1080              2728990  1485382  185664
     Sum       25943   17301   4319             10915929  5941483  742635
 
     Using Slab Decomposition
 


     bravais-lattice index     =            0
     lattice parameter (alat)  =      32.3352  a.u.
     unit-cell volume          =   51510.8153 (a.u.)^3
     number of atoms/cell      =          300
     number of atomic types    =            4
     number of electrons       =      1392.00
     number of Kohn-Sham states=          835
     kinetic-energy cutoff     =      90.0000  Ry
     charge density cutoff     =     540.0000  Ry
     scf convergence threshold =      1.0E-07
     mixing beta               =       0.2000
     number of iterations used =            8  plain     mixing
     Exchange-correlation= SLA  PW   PBX  PBC
                           (   1   4   3   4   0   0   0)

     GPU acceleration is ACTIVE.
     GPU-aware MPI enabled


     GPU used by master process:

        Device Number: 0
        Device name: NVIDIA PG506-243
        Compute capability : 80
        Ratio of single to double precision performance  : 2
        Memory Clock Rate (KHz): 1593000
        Memory Bus Width (bits): 4096
        Peak Memory Bandwidth (GB/s): ******

     celldm(1)=  32.335181  celldm(2)=   0.000000  celldm(3)=   0.000000
     celldm(4)=   0.000000  celldm(5)=   0.000000  celldm(6)=   0.000000

     crystal axes: (cart. coord. in units of alat)
               a(1) = (   1.000000   0.000000   0.000000 )  
               a(2) = (  -0.333333   0.577350   0.000000 )  
               a(3) = (   0.000000  -0.000000   2.638962 )  

     reciprocal axes: (cart. coord. in units 2 pi/alat)
               b(1) = (  1.000000  0.577350  0.000000 )  
               b(2) = ( -0.000000  1.732051  0.000000 )  
               b(3) = (  0.000000 -0.000000  0.378937 )  


     PseudoPot. # 1 for N  read from file:
     /leonardo_scratch/large/userexternal/uraucci0/Li_Cr/PPS/N.pbe-n-radius_5.UPF
     MD5 check sum: 16739722b17309cd8fe442a2ace49922
     Pseudo is Ultrasoft + core correction, Zval =  5.0
     Generated using "atomic" code by A. Dal Corso  v.5.1
     Using radial grid of 1085 points,  4 beta functions with: 
                l(1) =   0
                l(2) =   0
                l(3) =   1
                l(4) =   1
     Q(r) pseudized with 0 coefficients 


     PseudoPot. # 2 for Li read from file:
     /leonardo_scratch/large/userexternal/uraucci0/Li_Cr/PPS/li_pbe_v1.4.uspp.F.UPF
     MD5 check sum: e912e257baa3777c20ea3d68f190483c
     Pseudo is Ultrasoft, Zval =  3.0
     Generated by new atomic code, or converted to UPF format
     Using radial grid of  751 points,  5 beta functions with: 
                l(1) =   0
                l(2) =   0
                l(3) =   0
                l(4) =   1
                l(5) =   1
     Q(r) pseudized with 10 coefficients,  rinner =    1.150   1.150   1.150


     PseudoPot. # 3 for Cr read from file:
     /leonardo_scratch/large/userexternal/uraucci0/Li_Cr/PPS/cr_pbe_v1.5.uspp.F.UPF
     MD5 check sum: 0d52af634a40206e4dee301ad30da4bf
     Pseudo is Ultrasoft + core correction, Zval = 14.0
     Generated by new atomic code, or converted to UPF format
     Using radial grid of  857 points,  6 beta functions with: 
                l(1) =   0
                l(2) =   0
                l(3) =   1
                l(4) =   1
                l(5) =   2
                l(6) =   2
     Q(r) pseudized with  8 coefficients,  rinner =    0.950   0.950   0.950
                                                       0.950   0.950

     PseudoPot. # 4 for O  read from file:
     /leonardo_scratch/large/userexternal/uraucci0/Li_Cr/PPS/O.pbe-n-kjpaw_psl.0.1.UPF
     MD5 check sum: 0234752ac141de4415c5fc33072bef88
     Pseudo is Projector augmented-wave + core cor, Zval =  6.0
     Generated using "atomic" code by A. Dal Corso  v.5.0.99 svn rev. 10869
     Shape of augmentation charge: BESSEL
     Using radial grid of 1095 points,  4 beta functions with: 
                l(1) =   0
                l(2) =   0
                l(3) =   1
                l(4) =   1
     Q(r) pseudized with 0 coefficients 


     atomic species   valence    mass     pseudopotential
        N              5.00    14.00674     N ( 1.00)
        Li             3.00     6.94100     Li( 1.00)
        Cr            14.00    51.99610     Cr( 1.00)
        O              6.00    15.99940     O ( 1.00)

     No symmetry found


                                    s                        frac. trans.

      isym =  1     identity                                     

 cryst.   s( 1) = (     1          0          0      )
                  (     0          1          0      )
                  (     0          0          1      )

 cart.    s( 1) = (  1.0000000  0.0000000  0.0000000 )
                  (  0.0000000  1.0000000  0.0000000 )
                  (  0.0000000  0.0000000  1.0000000 )


   Cartesian axes

     site n.     atom                  positions (alat units)
         1           Li  tau(   1) = (   0.2593273   0.0873080   0.8766270  )
         2           Li  tau(   2) = (   0.1280588   0.1809300   0.8766270  )
         3           Li  tau(   3) = (   0.1126144   0.0204373   0.8766270  )
         4           Li  tau(   4) = (  -0.0945717   0.2062867   1.2802260  )
         5           Li  tau(   5) = (   0.0316684   0.1009354   1.2649727  )
         6           Li  tau(   6) = (   0.0440927   0.2483432   1.2715123  )
         7           Li  tau(   7) = (   0.0669942   0.0904568   1.0336250  )
         8           Li  tau(   8) = (   0.2214985   0.0127904   1.0336250  )
         9           Li  tau(   9) = (   0.2115073   0.1854282   1.0336250  )
        10           Li  tau(  10) = (   0.0961695   0.1880634   1.1244202  )
        11           Li  tau(  11) = (  -0.0519053   0.2841043   1.1323390  )
        12           Li  tau(  12) = (  -0.0555294   0.1057674   1.1218897  )
        13           Li  tau(  13) = (   0.0000000   0.0000000   0.9626942  )
        14           Li  tau(  14) = (  -0.3274915   0.5679906   1.1874029  )
        15           Cr  tau(  15) = (   0.1649625   0.0931515   1.1996114  )
        16           Cr  tau(  16) = (  -0.0000000   0.1924500   0.9478909  )
        17           N   tau(  17) = (   0.2583420   0.0788251   1.2385103  )
        18           N   tau(  18) = (   0.1605951   0.0873763   1.1019610  )
        19           N   tau(  19) = (  -0.0969339   0.1982778   0.9168466  )
        20           N   tau(  20) = (   0.0434200   0.1055885   0.9168466  )
        21           N   tau(  21) = (   0.0535141   0.2734837   0.9168466  )
        22           N   tau(  22) = (   0.1059228   0.0136610   1.2401057  )
        23           N   tau(  23) = (   0.1327225   0.1857923   1.2301531  )
        24           N   tau(  24) = (  -0.0000000   0.1924500   1.0497374  )
        25           O   tau(  25) = (   0.0086492  -0.0083831   1.0792564  )
        26           Li  tau(  26) = (   0.2497510   0.0846208   1.3744868  )
        27           Li  tau(  27) = (   0.1215227   0.1652266   1.3565510  )
        28           Li  tau(  28) = (   0.1063349   0.0105078   1.3791797  )
        29           Li  tau(  29) = (  -0.0987462   0.2077413   1.7435993  )
        30           Li  tau(  30) = (   0.0386765   0.0943940   1.7823521  )
        31           Li  tau(  31) = (   0.0620775   0.2964741   1.7979561  )
        32           Li  tau(  32) = (   0.0682226   0.0983295   1.5170789  )
        33           Li  tau(  33) = (  -0.1100991   0.6043642   1.5348920  )
        34           Li  tau(  34) = (   0.2088944   0.1984824   1.5222277  )
        35           Li  tau(  35) = (   0.0941795   0.1964720   1.6218008  )
        36           Li  tau(  36) = (  -0.0540275   0.2922137   1.6065884  )
        37           Li  tau(  37) = (  -0.0644221   0.1095491   1.6170027  )
        38           Li  tau(  38) = (   0.9849722   0.0134650   1.4591514  )
        39           Li  tau(  39) = (   0.9865735   0.0055679   1.6849647  )
        40           Cr  tau(  40) = (   0.1723151   0.1076323   1.7112752  )
        41           Cr  tau(  41) = (  -0.0034135   0.1964194   1.4415721  )
        42           N   tau(  42) = (   0.2718677   0.1079151   1.7408292  )
        43           N   tau(  43) = (   0.1743319   0.1153051   1.6030643  )
        44           N   tau(  44) = (  -0.0956944   0.2005635   1.4056012  )
        45           N   tau(  45) = (   0.0423615   0.1044811   1.4039298  )
        46           N   tau(  46) = (   0.0456222   0.2698661   1.3886472  )
        47           N   tau(  47) = (   0.1283949   0.0190211   1.7398415  )
        48           N   tau(  48) = (   0.1170057   0.1891632   1.7506591  )
        49           N   tau(  49) = (   0.0005366   0.1944850   1.5477200  )
        50           O   tau(  50) = (   0.0109408   0.0085724   1.5645161  )
        51           Li  tau(  51) = (   0.0926606   0.3759836   0.8766270  )
        52           Li  tau(  52) = (  -0.0386079   0.4696050   0.8766270  )
        53           Li  tau(  53) = (  -0.0540524   0.3091127   0.8766270  )
        54           Li  tau(  54) = (  -0.2570440   0.4964455   1.2835338  )
        55           Li  tau(  55) = (  -0.1251999   0.3844407   1.2774559  )
        56           Li  tau(  56) = (  -0.1169607   0.5560831   1.2958183  )
        57           Li  tau(  57) = (  -0.0996725   0.3791318   1.0336250  )
        58           Li  tau(  58) = (   0.0548319   0.3014656   1.0336250  )
        59           Li  tau(  59) = (   0.0448406   0.4741032   1.0336250  )
        60           Li  tau(  60) = (  -0.0675178   0.4862802   1.1186637  )
        61           Li  tau(  61) = (  -0.2192199   0.5559504   1.1213461  )
        62           Li  tau(  62) = (  -0.2018194   0.3767462   1.1320059  )
        63           Li  tau(  63) = (  -0.1666667   0.2886750   0.9626942  )
        64           Li  tau(  64) = (  -0.1704677   0.2812313   1.1980101  )
        65           Cr  tau(  65) = (   0.0050065   0.3911416   1.2019257  )
        66           Cr  tau(  66) = (  -0.1666667   0.4811250   0.9478909  )
        67           N   tau(  67) = (   0.1027798   0.3849725   1.2383174  )
        68           N   tau(  68) = (  -0.0037119   0.3899862   1.1039831  )
        69           N   tau(  69) = (  -0.2636006   0.4869528   0.9168466  )
        70           N   tau(  70) = (  -0.1232467   0.3942641   0.9168466  )
        71           N   tau(  71) = (  -0.1131527   0.5621587   0.9168466  )
        72           N   tau(  72) = (  -0.0471830   0.3055244   1.2446291  )
        73           N   tau(  73) = (  -0.0511916   0.4665800   1.2355823  )
        74           N   tau(  74) = (  -0.1666667   0.4811250   1.0497374  )
        75           O   tau(  75) = (  -0.1596887   0.2829121   1.0829382  )
        76           Li  tau(  76) = (   0.0858241   0.3731637   1.3657205  )
        77           Li  tau(  77) = (  -0.0505460   0.4640472   1.3641134  )
        78           Li  tau(  78) = (  -0.0504454   0.3060743   1.3651945  )
        79           Li  tau(  79) = (   0.7312355   0.4944264   1.7493617  )
        80           Li  tau(  80) = (  -0.1376661   0.3901843   1.7701670  )
        81           Li  tau(  81) = (  -0.1040042   0.5770590   1.7695007  )
        82           Li  tau(  82) = (  -0.1081892   0.3872616   1.5430622  )
        83           Li  tau(  83) = (   0.0729921   0.3074752   1.5558200  )
        84           Li  tau(  84) = (   0.0370405   0.4597663   1.5107380  )
        85           Li  tau(  85) = (  -0.0766885   0.4976249   1.6246235  )
        86           Li  tau(  86) = (   0.1083160   0.0222788   1.6166813  )
        87           Li  tau(  87) = (  -0.2299352   0.3868742   1.5969104  )
        88           Li  tau(  88) = (  -0.1662973   0.2912184   1.4584852  )
        89           Li  tau(  89) = (   0.8366411   0.2930441   1.6796289  )
        90           Cr  tau(  90) = (  -0.0022921   0.4004461   1.7094226  )
        91           Cr  tau(  91) = (  -0.1694643   0.4782894   1.4415838  )
        92           N   tau(  92) = (   0.0959492   0.3899278   1.7389357  )
        93           N   tau(  93) = (  -0.0040524   0.3879606   1.6083533  )
        94           N   tau(  94) = (  -0.2713873   0.4772246   1.4080908  )
        95           N   tau(  95) = (  -0.1210458   0.3932227   1.4073720  )
        96           N   tau(  96) = (  -0.1200546   0.5636758   1.4175350  )
        97           N   tau(  97) = (  -0.0643847   0.3225029   1.7352831  )
        98           N   tau(  98) = (  -0.0386533   0.4911548   1.7449786  )
        99           N   tau(  99) = (  -0.1579857   0.4808170   1.5418173  )
       100           O   tau( 100) = (  -0.1601796   0.2878446   1.5778584  )
       101           Li  tau( 101) = (   0.5926583   0.0873080   0.8766270  )
       102           Li  tau( 102) = (   0.4613921   0.1809300   0.8766270  )
       103           Li  tau( 103) = (   0.4459477   0.0204373   0.8766270  )
       104           Li  tau( 104) = (   0.2352341   0.2078576   1.2845040  )
       105           Li  tau( 105) = (   0.3740655   0.1103516   1.2810851  )
       106           Li  tau( 106) = (   0.3855160   0.2639430   1.2479428  )
       107           Li  tau( 107) = (   0.4003275   0.0904568   1.0336250  )
       108           Li  tau( 108) = (   0.5548318   0.0127904   1.0336250  )
       109           Li  tau( 109) = (   0.5448406   0.1854282   1.0336250  )
       110           Li  tau( 110) = (   0.4313496   0.1870190   1.1209487  )
       111           Li  tau( 111) = (   0.2669691   0.2895481   1.1203760  )
       112           Li  tau( 112) = (   0.2957991   0.1041667   1.1098857  )
       113           Li  tau( 113) = (   0.3333333   0.0000000   0.9626942  )
       114           Li  tau( 114) = (  -0.0027200   0.5678930   1.1947841  )
       115           Cr  tau( 115) = (   0.4981246   0.0916011   1.2034919  )
       116           Cr  tau( 116) = (   0.3333333   0.1924500   0.9478909  )
       117           N   tau( 117) = (   0.5892686   0.0934356   1.2236193  )
       118           N   tau( 118) = (   0.4978516   0.0984440   1.1026097  )
       119           N   tau( 119) = (   0.2363994   0.1982778   0.9168466  )
       120           N   tau( 120) = (   0.3767532   0.1055885   0.9168466  )
       121           N   tau( 121) = (   0.3868473   0.2734837   0.9168466  )
       122           N   tau( 122) = (   0.4450168   0.0133139   1.2488135  )
       123           N   tau( 123) = (   0.4498663   0.1806769   1.2439687  )
       124           N   tau( 124) = (   0.3333333   0.1924500   1.0497374  )
       125           O   tau( 125) = (   0.0013282   0.5698671   1.0781343  )
       126           Li  tau( 126) = (   0.5607502   0.0866102   1.3600400  )
       127           Li  tau( 127) = (   0.4586828   0.1766029   1.3610276  )
       128           Li  tau( 128) = (   0.4455106   0.0037838   1.3789868  )
       129           Li  tau( 129) = (   0.2566179   0.2170049   1.7787287  )
       130           Li  tau( 130) = (   0.3725606   0.1161735   1.7605767  )
       131           Li  tau( 131) = (   0.3999675   0.2700870   1.7852391  )
       132           Li  tau( 132) = (   0.3977829   0.0936203   1.5160913  )
       133           Li  tau( 133) = (   0.5368434   0.0160658   1.5111354  )
       134           Li  tau( 134) = (   0.5166261   0.1907844   1.5135198  )
       135           Li  tau( 135) = (   0.4087817   0.2105769   1.6190423  )
       136           Li  tau( 136) = (   0.2833083   0.2711343   1.6257047  )
       137           Li  tau( 137) = (   0.2898514   0.1123263   1.6230573  )
       138           Li  tau( 138) = (   0.3214124  -0.0098623   1.4398072  )
       139           Li  tau( 139) = (   0.0117120   0.6011323   1.6913933  )
       140           Cr  tau( 140) = (   0.4993361   0.1005848   1.6963959  )
       141           Cr  tau( 141) = (   0.3352975   0.1847410   1.4321513  )
       142           N   tau( 142) = (   0.5980817   0.1052437   1.7257103  )
       143           N   tau( 143) = (   0.4866589   0.1076124   1.5980559  )
       144           N   tau( 144) = (   0.2339489   0.1931799   1.4024220  )
       145           N   tau( 145) = (   0.3717255   0.0958744   1.4100720  )
       146           N   tau( 146) = (   0.3995023   0.2603489   1.4028194  )
       147           N   tau( 147) = (   0.4560605   0.0158578   1.7387837  )
       148           N   tau( 148) = (   0.4491410   0.1857847   1.7340324  )
       149           N   tau( 149) = (   0.3413486   0.1932472   1.5317244  )
       150           O   tau( 150) = (  -0.0086423   0.5944583   1.5857364  )
       151           Li  tau( 151) = (   0.4259940   0.3759836   0.8766270  )
       152           Li  tau( 152) = (   0.2947255   0.4696050   0.8766270  )
       153           Li  tau( 153) = (   0.2792811   0.3091127   0.8766270  )
       154           Li  tau( 154) = (   0.0593249   0.4856887   1.2732305  )
       155           Li  tau( 155) = (   0.2022314   0.3917681   1.2885540  )
       156           Li  tau( 156) = (   0.2001900   0.5332551   1.2858014  )
       157           Li  tau( 157) = (   0.2336608   0.3791318   1.0336250  )
       158           Li  tau( 158) = (   0.3881652   0.3014656   1.0336250  )
       159           Li  tau( 159) = (   0.3781739   0.4741032   1.0336250  )
       160           Li  tau( 160) = (   0.2709736   0.5003483   1.1234267  )
       161           Li  tau( 161) = (   0.1038633   0.5637787   1.1135442  )
       162           Li  tau( 162) = (   0.1148054   0.3922473   1.1146662  )
       163           Li  tau( 163) = (   0.1666667   0.2886750   0.9626942  )
       164           Li  tau( 164) = (   0.1597810   0.2913446   1.1985770  )
       165           Cr  tau( 165) = (   0.3269935   0.3867947   1.2026328  )
       166           Cr  tau( 166) = (   0.1666667   0.4811250   0.9478909  )
       167           N   tau( 167) = (   0.4177057   0.3848468   1.2381830  )
       168           N   tau( 168) = (   0.3354799   0.3770934   1.0994831  )
       169           N   tau( 169) = (   0.0697328   0.4869528   0.9168466  )
       170           N   tau( 170) = (   0.2100866   0.3942641   0.9168466  )
       171           N   tau( 171) = (   0.2201806   0.5621587   0.9168466  )
       172           N   tau( 172) = (   0.2718186   0.3042199   1.2376921  )
       173           N   tau( 173) = (   0.2903862   0.4781322   1.2240576  )
       174           N   tau( 174) = (   0.1666667   0.4811250   1.0497374  )
       175           O   tau( 175) = (   0.1532502   0.2887492   1.0766791  )
       176           Li  tau( 176) = (   0.4138205   0.3555482   1.3477672  )
       177           Li  tau( 177) = (   0.2928285   0.4634435   1.3584153  )
       178           Li  tau( 178) = (   0.2712693   0.2996486   1.3683562  )
       179           Li  tau( 179) = (   0.0700220   0.5080252   1.7759586  )
       180           Li  tau( 180) = (   0.2071131   0.3948527   1.7929943  )
       181           Li  tau( 181) = (   0.2443025   0.5822352   1.7671572  )
       182           Li  tau( 182) = (   0.2522810   0.3849941   1.5289076  )
       183           Li  tau( 183) = (   0.4022946   0.3121447   1.5004172  )
       184           Li  tau( 184) = (   0.3765107   0.4601012   1.5259621  )
       185           Li  tau( 185) = (   0.2601402   0.5056495   1.6071962  )
       186           Li  tau( 186) = (   0.0882459   0.5421307   1.6154423  )
       187           Li  tau( 187) = (   0.1499482   0.3969776   1.6319171  )
       188           Li  tau( 188) = (   0.1588612   0.2821512   1.4352604  )
       189           Li  tau( 189) = (   0.1712836   0.2734614   1.7105563  )
       190           Cr  tau( 190) = (   0.3338318   0.3843203   1.7031751  )
       191           Cr  tau( 191) = (   0.1705828   0.4732552   1.4363533  )
       192           N   tau( 192) = (   0.4312110   0.3750789   1.7458552  )
       193           N   tau( 193) = (   0.3421428   0.3796204   1.5965715  )
       194           N   tau( 194) = (   0.0697252   0.4798077   1.3939421  )
       195           N   tau( 195) = (   0.2167676   0.3892007   1.4136311  )
       196           N   tau( 196) = (   0.2108691   0.5554414   1.3981323  )
       197           N   tau( 197) = (   0.2697580   0.3116087   1.7422143  )
       198           N   tau( 198) = (   0.2916018   0.4774835   1.7248337  )
       199           N   tau( 199) = (   0.1655989   0.4772854   1.5322095  )
       200           O   tau( 200) = (   0.1733822   0.2958441   1.5808214  )
       201           Li  tau( 201) = (   0.9259927   0.0873080   0.8766270  )
       202           Li  tau( 202) = (   0.7947266   0.1809300   0.8766270  )
       203           Li  tau( 203) = (   0.7792805   0.0204373   0.8766270  )
       204           Li  tau( 204) = (   0.5638009   0.1961505   1.2694493  )
       205           Li  tau( 205) = (   0.6996652   0.1047008   1.2983722  )
       206           Li  tau( 206) = (   0.7174257   0.2573631   1.2780929  )
       207           Li  tau( 207) = (   0.7336608   0.0904568   1.0336250  )
       208           Li  tau( 208) = (   0.8881634   0.0127904   1.0336250  )
       209           Li  tau( 209) = (   0.8781757   0.1854282   1.0336250  )
       210           Li  tau( 210) = (   0.7625310   0.1941144   1.1121065  )
       211           Li  tau( 211) = (   0.6267181   0.2804371   1.1167643  )
       212           Li  tau( 212) = (   0.6199564   0.1029820   1.1195461  )
       213           Li  tau( 213) = (   0.6666690   0.0000000   0.9626942  )
       214           Li  tau( 214) = (   0.6636300  -0.0006176   1.2157472  )
       215           Cr  tau( 215) = (   0.8295404   0.0979894   1.2091082  )
       216           Cr  tau( 216) = (   0.6666690   0.1924500   0.9478909  )
       217           N   tau( 217) = (   0.9243739   0.0845413   1.2388025  )
       218           N   tau( 218) = (   0.8358697   0.1019120   1.1022707  )
       219           N   tau( 219) = (   0.5697327   0.1982778   0.9168466  )
       220           N   tau( 220) = (   0.7100854   0.1055885   0.9168466  )
       221           N   tau( 221) = (   0.7201783   0.2734837   0.9168466  )
       222           N   tau( 222) = (   0.7789064   0.0116733   1.2413798  )
       223           N   tau( 223) = (   0.7906415   0.1784772   1.2541142  )
       224           N   tau( 224) = (   0.6666690   0.1924500   1.0497374  )
       225           O   tau( 225) = (   0.3326747   0.5770356   1.0772284  )
       226           Li  tau( 226) = (   0.9293824   0.0735817   1.3639848  )
       227           Li  tau( 227) = (   0.7803383   0.1770494   1.3717985  )
       228           Li  tau( 228) = (   0.7784331   0.0200062   1.3572640  )
       229           Li  tau( 229) = (   0.5511488   0.2083012   1.7700852  )
       230           Li  tau( 230) = (   0.6884444   0.1102282   1.7877112  )
       231           Li  tau( 231) = (   0.7281848   0.2847442   1.7794592  )
       232           Li  tau( 232) = (   0.7105120   0.0942614   1.5186744  )
       233           Li  tau( 233) = (   0.8609762   0.0234195   1.5192997  )
       234           Li  tau( 234) = (   0.8872634   0.1851851   1.5288082  )
       235           Li  tau( 235) = (   0.7528940   0.1900884   1.6213449  )
       236           Li  tau( 236) = (   0.6008752   0.2835006   1.6006449  )
       237           Li  tau( 237) = (   0.5927342   0.1095883   1.6041806  )
       238           Li  tau( 238) = (   0.3257499   0.5864927   1.4535878  )
       239           Li  tau( 239) = (   0.6651612   0.0104755   1.6729607  )
       240           Cr  tau( 240) = (   0.8173845   0.0958504   1.7132213  )
       241           Cr  tau( 241) = (   0.6590306   0.1919416   1.4309649  )
       242           N   tau( 242) = (   0.9240759   0.0957808   1.7393974  )
       243           N   tau( 243) = (   0.8346073   0.0889502   1.6057293  )
       244           N   tau( 244) = (   0.5640621   0.1919591   1.4029187  )
       245           N   tau( 245) = (   0.7053574   0.1034648   1.3998038  )
       246           N   tau( 246) = (   0.7136269   0.2788591   1.4018025  )
       247           N   tau( 247) = (   0.7715077   0.0109791   1.7414662  )
       248           N   tau( 248) = (   0.7743597   0.1838258   1.7439208  )
       249           N   tau( 249) = (   0.6617423   0.1930005   1.5307777  )
       250           O   tau( 250) = (   0.6709761  -0.0108208   1.5638908  )
       251           Li  tau( 251) = (   0.7593284   0.3759836   0.8766270  )
       252           Li  tau( 252) = (   0.6280565   0.4696050   0.8766270  )
       253           Li  tau( 253) = (   0.6126161   0.3091127   0.8766270  )
       254           Li  tau( 254) = (   0.3959666   0.4846654   1.2899800  )
       255           Li  tau( 255) = (   0.5424088   0.4036949   1.2627636  )
       256           Li  tau( 256) = (   0.5553192   0.5542719   1.2762344  )
       257           Li  tau( 257) = (   0.5669941   0.3791318   1.0336250  )
       258           Li  tau( 258) = (   0.7214991   0.3014656   1.0336250  )
       259           Li  tau( 259) = (   0.7115055   0.4741032   1.0336250  )
       260           Li  tau( 260) = (   0.5905018   0.4874163   1.1279851  )
       261           Li  tau( 261) = (   0.4321444   0.5692412   1.1208202  )
       262           Li  tau( 262) = (   0.4493403   0.4131081   1.1133864  )
       263           Li  tau( 263) = (   0.5000000   0.2886750   0.9626942  )
       264           Li  tau( 264) = (   0.5104833   0.2945151   1.1852990  )
       265           Cr  tau( 265) = (   0.6714144   0.3893463   1.2042049  )
       266           Cr  tau( 266) = (   0.5000000   0.4811250   0.9478909  )
       267           N   tau( 267) = (   0.7633668   0.3761180   1.2425895  )
       268           N   tau( 268) = (   0.6739976   0.3907652   1.0984428  )
       269           N   tau( 269) = (   0.4030661   0.4869528   0.9168466  )
       270           N   tau( 270) = (   0.5434199   0.3942641   0.9168466  )
       271           N   tau( 271) = (   0.5535140   0.5621587   0.9168466  )
       272           N   tau( 272) = (   0.6186532   0.3076931   1.2268277  )
       273           N   tau( 273) = (   0.6229370   0.4784747   1.2349979  )
       274           N   tau( 274) = (   0.5000000   0.4811250   1.0497374  )
       275           O   tau( 275) = (   0.4984653   0.2881081   1.0707998  )
       276           Li  tau( 276) = (   0.7672239   0.3777970   1.3513205  )
       277           Li  tau( 277) = (   0.6067544   0.4896213   1.3589471  )
       278           Li  tau( 278) = (   0.6472371   0.3783855   1.4192240  )
       279           Li  tau( 279) = (   0.4053704   0.4870948   1.7674085  )
       280           Li  tau( 280) = (   0.5316076   0.3828598   1.7785242  )
       281           Li  tau( 281) = (   0.5550071   0.5479369   1.7763384  )
       282           Li  tau( 282) = (   0.5625701   0.3766539   1.5324783  )
       283           Li  tau( 283) = (   0.7063626   0.2789994   1.5228355  )
       284           Li  tau( 284) = (   0.7199971   0.4914973   1.5291647  )
       285           Li  tau( 285) = (   0.5974914   0.5128823   1.6042157  )
       286           Li  tau( 286) = (   0.4652271   0.5628430   1.6266164  )
       287           Li  tau( 287) = (   0.4617007   0.4036131   1.6278904  )
       288           Li  tau( 288) = (   0.5085529   0.2951597   1.4185694  )
       289           Li  tau( 289) = (   0.4863398   0.2808362   1.6843218  )
       290           Cr  tau( 290) = (   0.6603046   0.3801440   1.6860634  )
       291           Cr  tau( 291) = (   0.4906259   0.4871095   1.4395851  )
       292           N   tau( 292) = (   0.7628466   0.3698144   1.7276740  )
       293           N   tau( 293) = (   0.6632267   0.3702113   1.5841935  )
       294           N   tau( 294) = (   0.3954710   0.4919011   1.4098441  )
       295           N   tau( 295) = (   0.5391589   0.4034050   1.4134558  )
       296           N   tau( 296) = (   0.5412505   0.5685347   1.4080908  )
       297           N   tau( 297) = (   0.6005070   0.3086919   1.7147291  )
       298           N   tau( 298) = (   0.6148720   0.4640957   1.7251025  )
       299           N   tau( 299) = (   0.5063719   0.4838893   1.5430388  )
       300           O   tau( 300) = (   0.4907428   0.2915609   1.5688642  )

   Crystallographic axes

     site n.     atom                  positions (cryst. coord.)
         1           Li  tau(   1) = (  0.3097346  0.1512218  0.3321863  )
         2           Li  tau(   2) = (  0.2325188  0.3133799  0.3321863  )
         3           Li  tau(   3) = (  0.1244139  0.0353984  0.3321863  )
         4           Li  tau(   4) = (  0.0245280  0.3572990  0.4851248  )
         5           Li  tau(   5) = (  0.0899435  0.1748253  0.4793448  )
         6           Li  tau(   6) = (  0.1874737  0.4301430  0.4818229  )
         7           Li  tau(   7) = (  0.1192194  0.1566758  0.3916786  )
         8           Li  tau(   8) = (  0.2288830  0.0221536  0.3916786  )
         9           Li  tau(   9) = (  0.3185643  0.3211711  0.3916786  )
        10           Li  tau(  10) = (  0.2047479  0.3257353  0.4260843  )
        11           Li  tau(  11) = (  0.1121224  0.4920830  0.4290850  )
        12           Li  tau(  12) = (  0.0055354  0.1831945  0.4251253  )
        13           Li  tau(  13) = (  0.0000000  0.0000000  0.3648003  )
        14           Li  tau(  14) = (  0.0004380  0.9837885  0.4499507  )
        15           Cr  tau(  15) = (  0.2187436  0.1613432  0.4545770  )
        16           Cr  tau(  16) = (  0.1111111  0.3333332  0.3591908  )
        17           N   tau(  17) = (  0.3038517  0.1365291  0.4693172  )
        18           N   tau(  18) = (  0.2110419  0.1513402  0.4175736  )
        19           N   tau(  19) = (  0.0175419  0.3434273  0.3474270  )
        20           N   tau(  20) = (  0.1043816  0.1828847  0.3474270  )
        21           N   tau(  21) = (  0.2114100  0.4736876  0.3474270  )
        22           N   tau(  22) = (  0.1138100  0.0236616  0.4699218  )
        23           N   tau(  23) = (  0.2399897  0.3218017  0.4661503  )
        24           N   tau(  24) = (  0.1111111  0.3333332  0.3977842  )
        25           O   tau(  25) = (  0.0038092 -0.0145200  0.4089700  )
        26           Li  tau(  26) = (  0.2986069  0.1465675  0.5208437  )
        27           Li  tau(  27) = (  0.2169164  0.2861810  0.5140472  )
        28           Li  tau(  28) = (  0.1124015  0.0182000  0.5226220  )
        29           Li  tau(  29) = (  0.0211933  0.3598185  0.6607141  )
        30           Li  tau(  30) = (  0.0931749  0.1634952  0.6753989  )
        31           Li  tau(  31) = (  0.2332468  0.5135082  0.6813118  )
        32           Li  tau(  32) = (  0.1249932  0.1703117  0.5748771  )
        33           Li  tau(  33) = (  0.2388307  1.0467894  0.5816272  )
        34           Li  tau(  34) = (  0.3234882  0.3437815  0.5768282  )
        35           Li  tau(  35) = (  0.2076127  0.3402994  0.6145601  )
        36           Li  tau(  36) = (  0.1146822  0.5061289  0.6087956  )
        37           Li  tau(  37) = ( -0.0011739  0.1897447  0.6127419  )
        38           Li  tau(  38) = (  0.9927463  0.0233221  0.5529263  )
        39           Li  tau(  39) = (  0.9897881  0.0096439  0.6384952  )
        40           Cr  tau(  40) = (  0.2344566  0.1864245  0.6484652  )
        41           Cr  tau(  41) = (  0.1099893  0.3402083  0.5462648  )
        42           N   tau(  42) = (  0.3341726  0.1869145  0.6596644  )
        43           N   tau(  43) = (  0.2409033  0.1997143  0.6074602  )
        44           N   tau(  44) = (  0.0201010  0.3473861  0.5326341  )
        45           N   tau(  45) = (  0.1026837  0.1809665  0.5320007  )
        46           N   tau(  46) = (  0.2014294  0.4674218  0.5262096  )
        47           N   tau(  47) = (  0.1393767  0.0329455  0.6592901  )
        48           N   tau(  48) = (  0.2262192  0.3276403  0.6633893  )
        49           N   tau(  49) = (  0.1128226  0.3368578  0.5864881  )
        50           O   tau(  50) = (  0.0158900  0.0148478  0.5928528  )
        51           Li  tau(  51) = (  0.3097348  0.6512226  0.3321863  )
        52           Li  tau(  52) = (  0.2325186  0.8133797  0.3321863  )
        53           Li  tau(  53) = (  0.1244139  0.5353989  0.3321863  )
        54           Li  tau(  54) = (  0.0295790  0.8598689  0.4863783  )
        55           Li  tau(  55) = (  0.0967571  0.6658708  0.4840751  )
        56           Li  tau(  56) = (  0.2040940  0.9631641  0.4910333  )
        57           Li  tau(  57) = (  0.1192194  0.6566756  0.3916786  )
        58           Li  tau(  58) = (  0.2288831  0.5221537  0.3916786  )
        59           Li  tau(  59) = (  0.3185642  0.8211709  0.3916786  )
        60           Li  tau(  60) = (  0.2132362  0.8422620  0.4239029  )
        61           Li  tau(  61) = (  0.1017583  0.9629343  0.4249194  )
        62           Li  tau(  62) = (  0.0156951  0.6525436  0.4289588  )
        63           Li  tau(  63) = ( -0.0000001  0.4999998  0.3648003  )
        64           Li  tau(  64) = ( -0.0080988  0.4871069  0.4539702  )
        65           Cr  tau(  65) = (  0.2308322  0.6774771  0.4554540  )
        66           Cr  tau(  66) = (  0.1111110  0.8333330  0.3591908  )
        67           N   tau(  67) = (  0.3250438  0.6667919  0.4692441  )
        68           N   tau(  68) = (  0.2214467  0.6754759  0.4183399  )
        69           N   tau(  69) = (  0.0175418  0.8434271  0.3474270  )
        70           N   tau(  70) = (  0.1043818  0.6828855  0.3474270  )
        71           N   tau(  71) = (  0.2114098  0.9736874  0.3474270  )
        72           N   tau(  72) = (  0.1292115  0.5291837  0.4716359  )
        73           N   tau(  73) = (  0.2181885  0.8081403  0.4682077  )
        74           N   tau(  74) = (  0.1111110  0.8333330  0.3977842  )
        75           O   tau(  75) = (  0.0036507  0.4900181  0.4103652  )
        76           Li  tau(  76) = (  0.3012703  0.6463385  0.5175218  )
        77           Li  tau(  77) = (  0.2173717  0.8037533  0.5169128  )
        78           Li  tau(  78) = (  0.1262667  0.5301362  0.5173225  )
        79           Li  tau(  79) = (  1.0166927  0.8563716  0.6628976  )
        80           Li  tau(  80) = (  0.0876069  0.6758191  0.6707815  )
        81           Li  tau(  81) = (  0.2291610  0.9994955  0.6705291  )
        82           Li  tau(  82) = (  0.1153964  0.6707569  0.5847231  )
        83           Li  tau(  83) = (  0.2505129  0.5325626  0.5895575  )
        84           Li  tau(  84) = (  0.3024867  0.7963386  0.5724743  )
        85           Li  tau(  85) = (  0.2106154  0.8619116  0.6156297  )
        86           Li  tau(  86) = (  0.1211787  0.0385881  0.6126201  )
        87           Li  tau(  87) = ( -0.0065732  0.6700857  0.6051282  )
        88           Li  tau(  88) = (  0.0018377  0.5044051  0.5526738  )
        89           Li  tau(  89) = (  1.0058302  0.5075673  0.6364733  )
        90           Cr  tau(  90) = (  0.2289056  0.6935930  0.6477632  )
        91           Cr  tau(  91) = (  0.1066763  0.8284216  0.5462692  )
        92           N   tau(  92) = (  0.3210741  0.6753747  0.6589468  )
        93           N   tau(  93) = (  0.2199367  0.6719675  0.6094644  )
        94           N   tau(  94) = (  0.0041384  0.8265773  0.5335775  )
        95           N   tau(  95) = (  0.1059814  0.6810817  0.5333051  )
        96           N   tau(  96) = (  0.2053837  0.9763151  0.5371563  )
        97           N   tau(  97) = (  0.1218124  0.5585914  0.6575627  )
        98           N   tau(  98) = (  0.2449151  0.8507051  0.6612367  )
        99           N   tau(  99) = (  0.1196141  0.8327995  0.5842514  )
       100           O   tau( 100) = (  0.0060075  0.4985614  0.5979087  )
       101           Li  tau( 101) = (  0.6430655  0.1512218  0.3321863  )
       102           Li  tau( 102) = (  0.5658521  0.3133799  0.3321863  )
       103           Li  tau( 103) = (  0.4577472  0.0353984  0.3321863  )
       104           Li  tau( 104) = (  0.3552407  0.3600199  0.4867459  )
       105           Li  tau( 105) = (  0.4377770  0.1911345  0.4854504  )
       106           Li  tau( 106) = (  0.5379036  0.4571627  0.4728915  )
       107           Li  tau( 107) = (  0.4525527  0.1566758  0.3916786  )
       108           Li  tau( 108) = (  0.5622164  0.0221536  0.3916786  )
       109           Li  tau( 109) = (  0.6518976  0.3211711  0.3916786  )
       110           Li  tau( 110) = (  0.5393250  0.3239264  0.4247688  )
       111           Li  tau( 111) = (  0.4341398  0.5015121  0.4245518  )
       112           Li  tau( 112) = (  0.3559397  0.1804219  0.4205766  )
       113           Li  tau( 113) = (  0.3333333  0.0000000  0.3648003  )
       114           Li  tau( 114) = (  0.3251531  0.9836195  0.4527477  )
       115           Cr  tau( 115) = (  0.5510105  0.1586577  0.4560475  )
       116           Cr  tau( 116) = (  0.4444444  0.3333332  0.3591908  )
       117           N   tau( 117) = (  0.6432137  0.1618352  0.4636745  )
       118           N   tau( 118) = (  0.5546883  0.1705101  0.4178195  )
       119           N   tau( 119) = (  0.3508752  0.3434273  0.3474270  )
       120           N   tau( 120) = (  0.4377148  0.1828847  0.3474270  )
       121           N   tau( 121) = (  0.5447432  0.4736876  0.3474270  )
       122           N   tau( 122) = (  0.4527035  0.0230604  0.4732215  )
       123           N   tau( 123) = (  0.5541801  0.3129416  0.4713856  )
       124           N   tau( 124) = (  0.4444444  0.3333332  0.3977842  )
       125           O   tau( 125) = (  0.3303411  0.9870388  0.4085448  )
       126           Li  tau( 126) = (  0.6107546  0.1500132  0.5153693  )
       127           Li  tau( 127) = (  0.5606445  0.3058852  0.5157435  )
       128           Li  tau( 128) = (  0.4476952  0.0065537  0.5225489  )
       129           Li  tau( 129) = (  0.3819058  0.3758635  0.6740259  )
       130           Li  tau( 130) = (  0.4396334  0.2012185  0.6671474  )
       131           Li  tau( 131) = (  0.5559023  0.4678044  0.6764929  )
       132           Li  tau( 132) = (  0.4518346  0.1621550  0.5745029  )
       133           Li  tau( 133) = (  0.5461190  0.0278267  0.5726249  )
       134           Li  tau( 134) = (  0.6267755  0.3304483  0.5735285  )
       135           Li  tau( 135) = (  0.5303583  0.3647299  0.6135148  )
       136           Li  tau( 136) = (  0.4398478  0.4696184  0.6160394  )
       137           Li  tau( 137) = (  0.3547031  0.1945549  0.6150362  )
       138           Li  tau( 138) = (  0.3157184 -0.0170820  0.5455960  )
       139           Li  tau( 139) = (  0.3587759  1.0411917  0.6409313  )
       140           Cr  tau( 140) = (  0.5574087  0.1742179  0.6428269  )
       141           Cr  tau( 141) = (  0.4419578  0.3199807  0.5426949  )
       142           N   tau( 142) = (  0.6588442  0.1822875  0.6539352  )
       143           N   tau( 143) = (  0.5487889  0.1863901  0.6055623  )
       144           N   tau( 144) = (  0.3454814  0.3345975  0.5314294  )
       145           N   tau( 145) = (  0.4270786  0.1660593  0.5343283  )
       146           N   tau( 146) = (  0.5498148  0.4509374  0.5315800  )
       147           N   tau( 147) = (  0.4652160  0.0274666  0.6588893  )
       148           N   tau( 148) = (  0.5564039  0.3217886  0.6570888  )
       149           N   tau( 149) = (  0.4529199  0.3347139  0.5804269  )
       150           O   tau( 150) = (  0.3345684  1.0296319  0.6008940  )
       151           Li  tau( 151) = (  0.6430682  0.6512226  0.3321863  )
       152           Li  tau( 152) = (  0.5658520  0.8133797  0.3321863  )
       153           Li  tau( 153) = (  0.4577474  0.5353989  0.3321863  )
       154           Li  tau( 154) = (  0.3397374  0.8412376  0.4824740  )
       155           Li  tau( 155) = (  0.4284188  0.6785622  0.4882806  )
       156           Li  tau( 156) = (  0.5080650  0.9236249  0.4872375  )
       157           Li  tau( 157) = (  0.4525527  0.6566756  0.3916786  )
       158           Li  tau( 158) = (  0.5622164  0.5221537  0.3916786  )
       159           Li  tau( 159) = (  0.6518976  0.8211709  0.3916786  )
       160           Li  tau( 160) = (  0.5598498  0.8666286  0.4257078  )
       161           Li  tau( 161) = (  0.4293611  0.9764933  0.4219629  )
       162           Li  tau( 162) = (  0.3412695  0.6793923  0.4223881  )
       163           Li  tau( 163) = (  0.3333333  0.4999998  0.3648003  )
       164           Li  tau( 164) = (  0.3279889  0.5046237  0.4541850  )
       165           Cr  tau( 165) = (  0.5503096  0.6699481  0.4557219  )
       166           Cr  tau( 166) = (  0.4444443  0.8333330  0.3591908  )
       167           N   tau( 167) = (  0.6398972  0.6665743  0.4691932  )
       168           N   tau( 168) = (  0.5531948  0.6531449  0.4166347  )
       169           N   tau( 169) = (  0.3508751  0.8434271  0.3474270  )
       170           N   tau( 170) = (  0.4377151  0.6828855  0.3474270  )
       171           N   tau( 171) = (  0.5447431  0.9736874  0.3474270  )
       172           N   tau( 172) = (  0.4474601  0.5269244  0.4690072  )
       173           N   tau( 173) = (  0.5664360  0.8281493  0.4638405  )
       174           N   tau( 174) = (  0.4444443  0.8333330  0.3977842  )
       175           O   tau( 175) = (  0.3199596  0.5001283  0.4079934  )
       176           Li  tau( 176) = (  0.6190964  0.6158276  0.5107187  )
       177           Li  tau( 177) = (  0.5603977  0.8027076  0.5147536  )
       178           Li  tau( 178) = (  0.4442715  0.5190066  0.5185206  )
       179           Li  tau( 179) = (  0.3633305  0.8799254  0.6729762  )
       180           Li  tau( 180) = (  0.4350813  0.6839049  0.6794317  )
       181           Li  tau( 181) = (  0.5804561  1.0084609  0.6696410  )
       182           Li  tau( 182) = (  0.4745574  0.6668294  0.5793594  )
       183           Li  tau( 183) = (  0.5825114  0.5406504  0.5685634  )
       184           Li  tau( 184) = (  0.6421502  0.7969186  0.5782433  )
       185           Li  tau( 185) = (  0.5520771  0.8758107  0.6090259  )
       186           Li  tau( 186) = (  0.4012452  0.9389978  0.6121506  )
       187           Li  tau( 187) = (  0.3791433  0.6875854  0.6183935  )
       188           Li  tau( 188) = (  0.3217612  0.4887001  0.5438731  )
       189           Li  tau( 189) = (  0.3291666  0.4736491  0.6481929  )
       190           Cr  tau( 190) = (  0.5557192  0.6656622  0.6453958  )
       191           Cr  tau( 191) = (  0.4438169  0.8197021  0.5442872  )
       192           N   tau( 192) = (  0.6477629  0.6496557  0.6615689  )
       193           N   tau( 193) = (  0.5613168  0.6575218  0.6049998  )
       194           N   tau( 194) = (  0.3467423  0.8310514  0.5282160  )
       195           N   tau( 195) = (  0.4414728  0.6741155  0.5356769  )
       196           N   tau( 196) = (  0.5315533  0.9620527  0.5298039  )
       197           N   tau( 197) = (  0.4496654  0.5397222  0.6601892  )
       198           N   tau( 198) = (  0.5672770  0.8270257  0.6536031  )
       199           N   tau( 199) = (  0.4411598  0.8266826  0.5806107  )
       200           O   tau( 200) = (  0.3441879  0.5124170  0.5990315  )
       201           Li  tau( 201) = (  0.9764000  0.1512218  0.3321863  )
       202           Li  tau( 202) = (  0.8991866  0.3133799  0.3321863  )
       203           Li  tau( 203) = (  0.7910799  0.0353984  0.3321863  )
       204           Li  tau( 204) = (  0.6770484  0.3397427  0.4810412  )
       205           Li  tau( 205) = (  0.7601142  0.1813471  0.4920011  )
       206           Li  tau( 206) = (  0.8660143  0.4457659  0.4843165  )
       207           Li  tau( 207) = (  0.7858861  0.1566758  0.3916786  )
       208           Li  tau( 208) = (  0.8955479  0.0221536  0.3916786  )
       209           Li  tau( 209) = (  0.9852327  0.3211711  0.3916786  )
       210           Li  tau( 210) = (  0.8746031  0.3362161  0.4214181  )
       211           Li  tau( 211) = (  0.7886286  0.4857312  0.4231832  )
       212           Li  tau( 212) = (  0.6794131  0.1783701  0.4242373  )
       213           Li  tau( 213) = (  0.6666690  0.0000000  0.3648003  )
       214           Li  tau( 214) = (  0.6632734 -0.0010697  0.4606914  )
       215           Cr  tau( 215) = (  0.8861146  0.1697226  0.4581757  )
       216           Cr  tau( 216) = (  0.7777800  0.3333332  0.3591908  )
       217           N   tau( 217) = (  0.9731839  0.1464299  0.4694279  )
       218           N   tau( 218) = (  0.8947086  0.1765167  0.4176910  )
       219           N   tau( 219) = (  0.6842085  0.3434273  0.3474270  )
       220           N   tau( 220) = (  0.7710469  0.1828847  0.3474270  )
       221           N   tau( 221) = (  0.8780741  0.4736876  0.3474270  )
       222           N   tau( 222) = (  0.7856460  0.0202188  0.4704045  )
       223           N   tau( 223) = (  0.8936854  0.3091315  0.4752301  )
       224           N   tau( 224) = (  0.7777800  0.3333332  0.3977842  )
       225           O   tau( 225) = (  0.6658263  0.9994550  0.4082016  )
       226           Li  tau( 226) = (  0.9718648  0.1274473  0.5168641  )
       227           Li  tau( 227) = (  0.8825578  0.3066586  0.5198250  )
       228           Li  tau( 228) = (  0.7899836  0.0346518  0.5143174  )
       229           Li  tau( 229) = (  0.6714116  0.3607882  0.6707505  )
       230           Li  tau( 230) = (  0.7520847  0.1909209  0.6774297  )
       231           Li  tau( 231) = (  0.8925819  0.4931915  0.6743027  )
       232           Li  tau( 232) = (  0.7649338  0.1632655  0.5754817  )
       233           Li  tau( 233) = (  0.8744975  0.0405638  0.5757187  )
       234           Li  tau( 234) = (  0.9941800  0.3207500  0.5793218  )
       235           Li  tau( 235) = (  0.8626416  0.3292427  0.6143874  )
       236           Li  tau( 236) = (  0.7645543  0.4910374  0.6065433  )
       237           Li  tau( 237) = (  0.6560051  0.1898125  0.6078832  )
       238           Li  tau( 238) = (  0.6643616  1.0158351  0.5508180  )
       239           Li  tau( 239) = (  0.6712092  0.0181441  0.6339465  )
       240           Cr  tau( 240) = (  0.8727238  0.1660177  0.6492027  )
       241           Cr  tau( 241) = (  0.7698481  0.3324525  0.5422454  )
       242           N   tau( 242) = (  0.9793750  0.1658973  0.6591218  )
       243           N   tau( 243) = (  0.8859627  0.1540662  0.6084700  )
       244           N   tau( 244) = (  0.6748897  0.3324829  0.5316176  )
       245           N   tau( 245) = (  0.7650928  0.1792062  0.5304373  )
       246           N   tau( 246) = (  0.8746263  0.4829982  0.5311946  )
       247           N   tau( 247) = (  0.7778465  0.0190164  0.6599057  )
       248           N   tau( 248) = (  0.8804915  0.3183955  0.6608359  )
       249           N   tau( 249) = (  0.7731712  0.3342867  0.5800681  )
       250           O   tau( 250) = (  0.6647287 -0.0187422  0.5926159  )
       251           Li  tau( 251) = (  0.9764026  0.6512226  0.3321863  )
       252           Li  tau( 252) = (  0.8991830  0.8133797  0.3321863  )
       253           Li  tau( 253) = (  0.7910824  0.5353989  0.3321863  )
       254           Li  tau( 254) = (  0.6757883  0.8394651  0.4888210  )
       255           Li  tau( 255) = (  0.7754822  0.6992201  0.4785077  )
       256           Li  tau( 256) = (  0.8753283  0.9600272  0.4836123  )
       257           Li  tau( 257) = (  0.7858860  0.6566756  0.3916786  )
       258           Li  tau( 258) = (  0.8955503  0.5221537  0.3916786  )
       259           Li  tau( 259) = (  0.9852291  0.8211709  0.3916786  )
       260           Li  tau( 260) = (  0.8719117  0.8442298  0.4274351  )
       261           Li  tau( 261) = (  0.7607959  0.9859547  0.4247201  )
       262           Li  tau( 262) = (  0.6878484  0.7155243  0.4219031  )
       263           Li  tau( 263) = (  0.6666666  0.4999998  0.3648003  )
       264           Li  tau( 264) = (  0.6805216  0.5101151  0.4491535  )
       265           Cr  tau( 265) = (  0.8962036  0.6743675  0.4563176  )
       266           Cr  tau( 266) = (  0.7777776  0.8333330  0.3591908  )
       267           N   tau( 267) = (  0.9805186  0.6514554  0.4708630  )
       268           N   tau( 268) = (  0.8996060  0.6768252  0.4162405  )
       269           N   tau( 269) = (  0.6842084  0.8434271  0.3474270  )
       270           N   tau( 270) = (  0.7710484  0.6828855  0.3474270  )
       271           N   tau( 271) = (  0.8780764  0.9736874  0.3474270  )
       272           N   tau( 272) = (  0.7962999  0.5329402  0.4648903  )
       273           N   tau( 273) = (  0.8991845  0.8287425  0.4679862  )
       274           N   tau( 274) = (  0.7777776  0.8333330  0.3977842  )
       275           O   tau( 275) = (  0.6648046  0.4990179  0.4057655  )
       276           Li  tau( 276) = (  0.9853451  0.6543636  0.5120651  )
       277           Li  tau( 277) = (  0.8894374  0.8480489  0.5149552  )
       278           Li  tau( 278) = (  0.8656980  0.6553829  0.5377963  )
       279           Li  tau( 279) = (  0.6865948  0.8436730  0.6697362  )
       280           Li  tau( 280) = (  0.7526518  0.6631326  0.6739484  )
       281           Li  tau( 281) = (  0.8713586  0.9490545  0.6731201  )
       282           Li  tau( 282) = (  0.7800313  0.6523837  0.5807125  )
       283           Li  tau( 283) = (  0.8674430  0.4832411  0.5770585  )
       284           Li  tau( 284) = (  1.0037632  0.8512982  0.5794569  )
       285           Li  tau( 285) = (  0.8936041  0.8883382  0.6078964  )
       286           Li  tau( 286) = (  0.7901847  0.9748727  0.6163849  )
       287           Li  tau( 287) = (  0.6947268  0.6990784  0.6168677  )
       288           Li  tau( 288) = (  0.6789635  0.5112316  0.5375483  )
       289           Li  tau( 289) = (  0.6484806  0.4864226  0.6382516  )
       290           Cr  tau( 290) = (  0.8797809  0.6584288  0.6389116  )
       291           Cr  tau( 291) = (  0.7718587  0.8436983  0.5455119  )
       292           N   tau( 292) = (  0.9763591  0.6405374  0.6546793  )
       293           N   tau( 293) = (  0.8769683  0.6412247  0.6003093  )
       294           N   tau( 294) = (  0.6794702  0.8519977  0.5342419  )
       295           N   tau( 295) = (  0.7720649  0.6987180  0.5356105  )
       296           N   tau( 296) = (  0.8694942  0.9847309  0.5335775  )
       297           N   tau( 297) = (  0.7787304  0.5346701  0.6497741  )
       298           N   tau( 298) = (  0.8828178  0.8038373  0.6537049  )
       299           N   tau( 299) = (  0.7857455  0.8381209  0.5847143  )
       300           O   tau( 300) = (  0.6590755  0.5049982  0.5945005  )

     number of k points=     1  Gaussian smearing, width (Ry)=  0.0147
                       cart. coord. in units 2pi/alat
        k(    1) = (   0.0000000   0.0000000   0.0000000), wk =   2.0000000

                       cryst. coord.
        k(    1) = (   0.0000000   0.0000000   0.0000000), wk =   2.0000000

     Dense  grid:  5457965 G-vectors     FFT dimensions: ( 240, 160, 640)

     Smooth grid:  2970742 G-vectors     FFT dimensions: ( 200, 135, 540)

     Dynamical RAM for                 wfc:    1182.84 MB

     Dynamical RAM for     wfc (w. buffer):    1182.84 MB

     Dynamical RAM for           str. fact:      83.28 MB

     Dynamical RAM for           local pot:       0.00 MB

     Dynamical RAM for          nlocal pot:    3977.76 MB

     Dynamical RAM for                qrad:       7.46 MB

     Dynamical RAM for          rho,v,vnew:     203.09 MB

     Dynamical RAM for               rhoin:      67.70 MB

     Dynamical RAM for            rho*nmix:     333.13 MB

     Dynamical RAM for           G-vectors:      83.74 MB

     Dynamical RAM for          h,s,v(r/c):      63.83 MB

     Dynamical RAM for          <psi|beta>:      17.89 MB

     Dynamical RAM for                 psi:    2365.69 MB

     Dynamical RAM for                hpsi:    2365.69 MB

     Dynamical RAM for                spsi:    2365.69 MB

     Dynamical RAM for      wfcinit/wfcrot:    4336.08 MB

     Dynamical RAM for           addusdens:    7370.47 MB

     Dynamical RAM for          addusforce:   14335.60 MB

     Dynamical RAM for         addusstress:    4184.93 MB

     Estimated static dynamical RAM per process >       5.81 GB

     Estimated max dynamical RAM per process >      20.13 GB

     Estimated total dynamical RAM >      80.52 GB

     Check: negative core charge=   -0.000002

     Initial potential from superposition of free atoms

     starting charge    1292.2742, renormalised to    1392.0000

     negative rho (up, down):  2.581E-02 0.000E+00
     Starting wfcs are 1512 randomized atomic wfcs
     Checking if some PAW data can be deallocated... 

     total cpu time spent up to now is       38.1 secs

     per-process dynamical memory:  1708.4 Mb

     Self-consistent Calculation
[tb_dev] Currently allocated     1.26E+02 Mbytes, locked:    0 /  11
[tb_pin] Currently allocated     0.00E+00 Mbytes, locked:    0 /   0

     iteration #  1     ecut=    90.00 Ry     beta= 0.20
     Davidson diagonalization with overlap

---- Real-time Memory Report at c_bands before calling an iterative solver
         10171 MiB given to the printing process from OS
          1746 MiB allocation reported by mallinfo(arena+hblkhd)
        465929 MiB available memory on the node where the printing process lives
     GPU memory used/free/total (MiB): 16367 / 48601 / 64969
------------------
     ethr =  1.00E-02,  avg # of iterations =  3.0

     negative rho (up, down):  3.993E-02 0.000E+00

     total cpu time spent up to now is       42.0 secs

     total energy              =   -9071.60884932 Ry
     estimated scf accuracy    <     237.71112256 Ry
[tb_dev] Currently allocated     2.41E+01 Mbytes, locked:    0 /   6
[tb_pin] Currently allocated     0.00E+00 Mbytes, locked:    0 /   0

     iteration #  2     ecut=    90.00 Ry     beta= 0.20
     Davidson diagonalization with overlap

---- Real-time Memory Report at c_bands before calling an iterative solver
         10502 MiB given to the printing process from OS
          2013 MiB allocation reported by mallinfo(arena+hblkhd)
        464964 MiB available memory on the node where the printing process lives
     GPU memory used/free/total (MiB): 31251 / 33717 / 64969
------------------
     ethr =  1.00E-02,  avg # of iterations =  5.0

     negative rho (up, down):  6.036E-02 0.000E+00

     total cpu time spent up to now is       45.8 secs

     total energy              =   -9071.73370749 Ry
     estimated scf accuracy    <      41.07812668 Ry
[tb_dev] Currently allocated     2.41E+01 Mbytes, locked:    0 /   6
[tb_pin] Currently allocated     0.00E+00 Mbytes, locked:    0 /   0

     iteration #  3     ecut=    90.00 Ry     beta= 0.20
     Davidson diagonalization with overlap

---- Real-time Memory Report at c_bands before calling an iterative solver
         10526 MiB given to the printing process from OS
          2037 MiB allocation reported by mallinfo(arena+hblkhd)
        464846 MiB available memory on the node where the printing process lives
     GPU memory used/free/total (MiB): 31251 / 33717 / 64969
------------------
     ethr =  2.95E-03,  avg # of iterations =  7.0

     negative rho (up, down):  4.504E-02 0.000E+00

     total cpu time spent up to now is       51.3 secs

     total energy              =   -9092.67138463 Ry
     estimated scf accuracy    <     463.04259742 Ry
[tb_dev] Currently allocated     2.41E+01 Mbytes, locked:    0 /   6
[tb_pin] Currently allocated     0.00E+00 Mbytes, locked:    0 /   0

     iteration #  4     ecut=    90.00 Ry     beta= 0.20
     Davidson diagonalization with overlap

---- Real-time Memory Report at c_bands before calling an iterative solver
         10529 MiB given to the printing process from OS
         -2035 MiB allocation reported by mallinfo(arena+hblkhd)
        464606 MiB available memory on the node where the printing process lives
     GPU memory used/free/total (MiB): 31251 / 33717 / 64969
------------------
     ethr =  2.95E-03,  avg # of iterations =  2.0

     negative rho (up, down):  4.017E-02 0.000E+00

     total cpu time spent up to now is       54.7 secs

     total energy              =   -9089.22310027 Ry
     estimated scf accuracy    <     448.97038261 Ry
[tb_dev] Currently allocated     2.41E+01 Mbytes, locked:    0 /   6
[tb_pin] Currently allocated     0.00E+00 Mbytes, locked:    0 /   0

     iteration #  5     ecut=    90.00 Ry     beta= 0.20
     Davidson diagonalization with overlap

---- Real-time Memory Report at c_bands before calling an iterative solver
         10552 MiB given to the printing process from OS
         -2011 MiB allocation reported by mallinfo(arena+hblkhd)
        464512 MiB available memory on the node where the printing process lives
     GPU memory used/free/total (MiB): 31251 / 33717 / 64969
------------------
     ethr =  2.95E-03,  avg # of iterations =  2.0

     negative rho (up, down):  3.473E-02 0.000E+00

     total cpu time spent up to now is       58.1 secs

     total energy              =   -9094.48771053 Ry
     estimated scf accuracy    <      13.96226359 Ry
[tb_dev] Currently allocated     2.41E+01 Mbytes, locked:    0 /   6
[tb_pin] Currently allocated     0.00E+00 Mbytes, locked:    0 /   0

     iteration #  6     ecut=    90.00 Ry     beta= 0.20
     Davidson diagonalization with overlap

---- Real-time Memory Report at c_bands before calling an iterative solver
         10576 MiB given to the printing process from OS
         -1988 MiB allocation reported by mallinfo(arena+hblkhd)
        464400 MiB available memory on the node where the printing process lives
     GPU memory used/free/total (MiB): 31251 / 33717 / 64969
------------------
     ethr =  1.00E-03,  avg # of iterations =  2.0

     negative rho (up, down):  2.784E-02 0.000E+00

     total cpu time spent up to now is       61.8 secs

     total energy              =   -9103.23360070 Ry
     estimated scf accuracy    <      15.57946205 Ry
[tb_dev] Currently allocated     2.41E+01 Mbytes, locked:    0 /   6
[tb_pin] Currently allocated     0.00E+00 Mbytes, locked:    0 /   0

     iteration #  7     ecut=    90.00 Ry     beta= 0.20
     Davidson diagonalization with overlap

---- Real-time Memory Report at c_bands before calling an iterative solver
         10599 MiB given to the printing process from OS
         -1964 MiB allocation reported by mallinfo(arena+hblkhd)
        464235 MiB available memory on the node where the printing process lives
     GPU memory used/free/total (MiB): 31251 / 33717 / 64969
------------------
     ethr =  1.00E-03,  avg # of iterations =  9.0

     negative rho (up, down):  3.449E-02 0.000E+00

     total cpu time spent up to now is       66.3 secs

     total energy              =   -9088.54612394 Ry
     estimated scf accuracy    <      77.93938681 Ry
[tb_dev] Currently allocated     2.41E+01 Mbytes, locked:    0 /   6
[tb_pin] Currently allocated     0.00E+00 Mbytes, locked:    0 /   0

     iteration #  8     ecut=    90.00 Ry     beta= 0.20
     Davidson diagonalization with overlap

---- Real-time Memory Report at c_bands before calling an iterative solver
         10623 MiB given to the printing process from OS
         -1941 MiB allocation reported by mallinfo(arena+hblkhd)
        464189 MiB available memory on the node where the printing process lives
     GPU memory used/free/total (MiB): 31419 / 33549 / 64969
------------------
     ethr =  1.00E-03,  avg # of iterations =  5.0

     negative rho (up, down):  3.334E-02 0.000E+00

     total cpu time spent up to now is       70.9 secs

     total energy              =   -9096.00654684 Ry
     estimated scf accuracy    <       1.25131890 Ry
[tb_dev] Currently allocated     2.41E+01 Mbytes, locked:    0 /   6
[tb_pin] Currently allocated     0.00E+00 Mbytes, locked:    0 /   0

     iteration #  9     ecut=    90.00 Ry     beta= 0.20
     Davidson diagonalization with overlap

---- Real-time Memory Report at c_bands before calling an iterative solver
         10646 MiB given to the printing process from OS
         -1917 MiB allocation reported by mallinfo(arena+hblkhd)
        464237 MiB available memory on the node where the printing process lives
     GPU memory used/free/total (MiB): 31419 / 33549 / 64969
------------------
     ethr =  8.99E-05,  avg # of iterations = 15.0

     negative rho (up, down):  3.598E-02 0.000E+00

     total cpu time spent up to now is       75.8 secs

     total energy              =   -9095.47944562 Ry
     estimated scf accuracy    <       2.32531075 Ry
[tb_dev] Currently allocated     2.41E+01 Mbytes, locked:    0 /   6
[tb_pin] Currently allocated     0.00E+00 Mbytes, locked:    0 /   0

     iteration # 10     ecut=    90.00 Ry     beta= 0.20
     Davidson diagonalization with overlap

---- Real-time Memory Report at c_bands before calling an iterative solver
         10670 MiB given to the printing process from OS
         -1894 MiB allocation reported by mallinfo(arena+hblkhd)
        464048 MiB available memory on the node where the printing process lives
     GPU memory used/free/total (MiB): 31419 / 33549 / 64969
------------------
     ethr =  8.99E-05,  avg # of iterations = 16.0

     negative rho (up, down):  3.483E-02 0.000E+00

     total cpu time spent up to now is       80.6 secs

     total energy              =   -9095.42748937 Ry
     estimated scf accuracy    <       4.22605665 Ry
[tb_dev] Currently allocated     2.41E+01 Mbytes, locked:    0 /   6
[tb_pin] Currently allocated     0.00E+00 Mbytes, locked:    0 /   0

     iteration # 11     ecut=    90.00 Ry     beta= 0.20
     Davidson diagonalization with overlap

---- Real-time Memory Report at c_bands before calling an iterative solver
         10670 MiB given to the printing process from OS
         -1894 MiB allocation reported by mallinfo(arena+hblkhd)
        463953 MiB available memory on the node where the printing process lives
     GPU memory used/free/total (MiB): 31419 / 33549 / 64969
------------------
     ethr =  8.99E-05,  avg # of iterations =  5.0

     negative rho (up, down):  3.552E-02 0.000E+00

     total cpu time spent up to now is       84.4 secs

     total energy              =   -9095.94159124 Ry
     estimated scf accuracy    <       0.46100959 Ry
[tb_dev] Currently allocated     2.41E+01 Mbytes, locked:    0 /   6
[tb_pin] Currently allocated     0.00E+00 Mbytes, locked:    0 /   0

     iteration # 12     ecut=    90.00 Ry     beta= 0.20
     Davidson diagonalization with overlap

---- Real-time Memory Report at c_bands before calling an iterative solver
         10670 MiB given to the printing process from OS
         -1894 MiB allocation reported by mallinfo(arena+hblkhd)
        464143 MiB available memory on the node where the printing process lives
     GPU memory used/free/total (MiB): 31419 / 33549 / 64969
------------------
     c_bands:  1 eigenvalues not converged
     ethr =  3.31E-05,  avg # of iterations = 20.0

     negative rho (up, down):  3.742E-02 0.000E+00

     total cpu time spent up to now is       88.6 secs

     total energy              =   -9095.87474021 Ry
     estimated scf accuracy    <       0.25042036 Ry
[tb_dev] Currently allocated     2.41E+01 Mbytes, locked:    0 /   6
[tb_pin] Currently allocated     0.00E+00 Mbytes, locked:    0 /   0

     iteration # 13     ecut=    90.00 Ry     beta= 0.20
     Davidson diagonalization with overlap

---- Real-time Memory Report at c_bands before calling an iterative solver
         10670 MiB given to the printing process from OS
         -1894 MiB allocation reported by mallinfo(arena+hblkhd)
        463952 MiB available memory on the node where the printing process lives
     GPU memory used/free/total (MiB): 31419 / 33549 / 64969
------------------
     c_bands:  1 eigenvalues not converged
     ethr =  1.80E-05,  avg # of iterations = 20.0

     negative rho (up, down):  3.748E-02 0.000E+00

     total cpu time spent up to now is       93.7 secs

     total energy              =   -9095.91456615 Ry
     estimated scf accuracy    <       0.15941933 Ry
[tb_dev] Currently allocated     2.41E+01 Mbytes, locked:    0 /   6
[tb_pin] Currently allocated     0.00E+00 Mbytes, locked:    0 /   0

     iteration # 14     ecut=    90.00 Ry     beta= 0.20
     Davidson diagonalization with overlap

---- Real-time Memory Report at c_bands before calling an iterative solver
         10670 MiB given to the printing process from OS
         -1894 MiB allocation reported by mallinfo(arena+hblkhd)
        463952 MiB available memory on the node where the printing process lives
     GPU memory used/free/total (MiB): 31419 / 33549 / 64969
------------------
     ethr =  1.15E-05,  avg # of iterations = 39.0

     negative rho (up, down):  3.788E-02 0.000E+00

     total cpu time spent up to now is      100.1 secs

     total energy              =   -9095.92970426 Ry
     estimated scf accuracy    <       0.01185482 Ry
[tb_dev] Currently allocated     2.41E+01 Mbytes, locked:    0 /   6
[tb_pin] Currently allocated     0.00E+00 Mbytes, locked:    0 /   0

     iteration # 15     ecut=    90.00 Ry     beta= 0.20
     Davidson diagonalization with overlap

---- Real-time Memory Report at c_bands before calling an iterative solver
         10670 MiB given to the printing process from OS
         -1894 MiB allocation reported by mallinfo(arena+hblkhd)
        464143 MiB available memory on the node where the printing process lives
     GPU memory used/free/total (MiB): 31441 / 33527 / 64969
------------------
     c_bands:  2 eigenvalues not converged
     ethr =  8.52E-07,  avg # of iterations = 20.0

     negative rho (up, down):  3.846E-02 0.000E+00

     total cpu time spent up to now is      105.3 secs

     total energy              =   -9095.93162552 Ry
     estimated scf accuracy    <       0.03994486 Ry
[tb_dev] Currently allocated     2.41E+01 Mbytes, locked:    0 /   6
[tb_pin] Currently allocated     0.00E+00 Mbytes, locked:    0 /   0

     iteration # 16     ecut=    90.00 Ry     beta= 0.20
     Davidson diagonalization with overlap

---- Real-time Memory Report at c_bands before calling an iterative solver
         10670 MiB given to the printing process from OS
         -1894 MiB allocation reported by mallinfo(arena+hblkhd)
        463952 MiB available memory on the node where the printing process lives
     GPU memory used/free/total (MiB): 31465 / 33503 / 64969
------------------
     ethr =  8.52E-07,  avg # of iterations =  2.0

     negative rho (up, down):  3.908E-02 0.000E+00

     total cpu time spent up to now is      108.8 secs

     total energy              =   -9095.92763533 Ry
     estimated scf accuracy    <       0.02809221 Ry
[tb_dev] Currently allocated     2.41E+01 Mbytes, locked:    0 /   6
[tb_pin] Currently allocated     0.00E+00 Mbytes, locked:    0 /   0

     iteration # 17     ecut=    90.00 Ry     beta= 0.20
     Davidson diagonalization with overlap

---- Real-time Memory Report at c_bands before calling an iterative solver
         10670 MiB given to the printing process from OS
         -1894 MiB allocation reported by mallinfo(arena+hblkhd)
        463952 MiB available memory on the node where the printing process lives
     GPU memory used/free/total (MiB): 31465 / 33503 / 64969
------------------
     ethr =  8.52E-07,  avg # of iterations =  2.0

     negative rho (up, down):  3.932E-02 0.000E+00

     total cpu time spent up to now is      112.4 secs

     total energy              =   -9095.92946704 Ry
     estimated scf accuracy    <       0.00107504 Ry
[tb_dev] Currently allocated     2.41E+01 Mbytes, locked:    0 /   6
[tb_pin] Currently allocated     0.00E+00 Mbytes, locked:    0 /   0

     iteration # 18     ecut=    90.00 Ry     beta= 0.20
     Davidson diagonalization with overlap

---- Real-time Memory Report at c_bands before calling an iterative solver
         10670 MiB given to the printing process from OS
         -1894 MiB allocation reported by mallinfo(arena+hblkhd)
        463951 MiB available memory on the node where the printing process lives
     GPU memory used/free/total (MiB): 31465 / 33503 / 64969
------------------
     ethr =  7.72E-08,  avg # of iterations =  5.0

     negative rho (up, down):  3.943E-02 0.000E+00

     total cpu time spent up to now is      116.6 secs

     total energy              =   -9095.92978326 Ry
     estimated scf accuracy    <       0.00078992 Ry
[tb_dev] Currently allocated     2.41E+01 Mbytes, locked:    0 /   6
[tb_pin] Currently allocated     0.00E+00 Mbytes, locked:    0 /   0

     iteration # 19     ecut=    90.00 Ry     beta= 0.20
     Davidson diagonalization with overlap

---- Real-time Memory Report at c_bands before calling an iterative solver
         10670 MiB given to the printing process from OS
         -1894 MiB allocation reported by mallinfo(arena+hblkhd)
        463952 MiB available memory on the node where the printing process lives
     GPU memory used/free/total (MiB): 31465 / 33503 / 64969
------------------
     ethr =  5.67E-08,  avg # of iterations =  2.0

     negative rho (up, down):  3.953E-02 0.000E+00

     total cpu time spent up to now is      120.2 secs

     total energy              =   -9095.92980214 Ry
     estimated scf accuracy    <       0.00022026 Ry
[tb_dev] Currently allocated     2.41E+01 Mbytes, locked:    0 /   6
[tb_pin] Currently allocated     0.00E+00 Mbytes, locked:    0 /   0

     iteration # 20     ecut=    90.00 Ry     beta= 0.20
     Davidson diagonalization with overlap

---- Real-time Memory Report at c_bands before calling an iterative solver
         10670 MiB given to the printing process from OS
         -1894 MiB allocation reported by mallinfo(arena+hblkhd)
        463951 MiB available memory on the node where the printing process lives
     GPU memory used/free/total (MiB): 31465 / 33503 / 64969
------------------
     ethr =  1.58E-08,  avg # of iterations =  5.0

     negative rho (up, down):  3.965E-02 0.000E+00

     total cpu time spent up to now is      123.9 secs

     total energy              =   -9095.92983234 Ry
     estimated scf accuracy    <       0.00010521 Ry
[tb_dev] Currently allocated     2.41E+01 Mbytes, locked:    0 /   6
[tb_pin] Currently allocated     0.00E+00 Mbytes, locked:    0 /   0

     iteration # 21     ecut=    90.00 Ry     beta= 0.20
     Davidson diagonalization with overlap

---- Real-time Memory Report at c_bands before calling an iterative solver
         10670 MiB given to the printing process from OS
         -1894 MiB allocation reported by mallinfo(arena+hblkhd)
        463951 MiB available memory on the node where the printing process lives
     GPU memory used/free/total (MiB): 31635 / 33333 / 64969
------------------
     ethr =  7.56E-09,  avg # of iterations =  4.0

     negative rho (up, down):  3.973E-02 0.000E+00

     total cpu time spent up to now is      127.7 secs

     total energy              =   -9095.92984237 Ry
     estimated scf accuracy    <       0.00005764 Ry
[tb_dev] Currently allocated     2.41E+01 Mbytes, locked:    0 /   6
[tb_pin] Currently allocated     0.00E+00 Mbytes, locked:    0 /   0

     iteration # 22     ecut=    90.00 Ry     beta= 0.20
     Davidson diagonalization with overlap

---- Real-time Memory Report at c_bands before calling an iterative solver
         10670 MiB given to the printing process from OS
         -1894 MiB allocation reported by mallinfo(arena+hblkhd)
        463951 MiB available memory on the node where the printing process lives
     GPU memory used/free/total (MiB): 31635 / 33333 / 64969
------------------
     ethr =  4.14E-09,  avg # of iterations =  2.0

     negative rho (up, down):  3.977E-02 0.000E+00

     total cpu time spent up to now is      131.3 secs

     total energy              =   -9095.92984813 Ry
     estimated scf accuracy    <       0.00001025 Ry
[tb_dev] Currently allocated     2.41E+01 Mbytes, locked:    0 /   6
[tb_pin] Currently allocated     0.00E+00 Mbytes, locked:    0 /   0

     iteration # 23     ecut=    90.00 Ry     beta= 0.20
     Davidson diagonalization with overlap

---- Real-time Memory Report at c_bands before calling an iterative solver
         10670 MiB given to the printing process from OS
         -1894 MiB allocation reported by mallinfo(arena+hblkhd)
        463951 MiB available memory on the node where the printing process lives
     GPU memory used/free/total (MiB): 31635 / 33333 / 64969
------------------
     ethr =  7.36E-10,  avg # of iterations =  5.0

     negative rho (up, down):  3.979E-02 0.000E+00

     total cpu time spent up to now is      135.2 secs

     total energy              =   -9095.92984939 Ry
     estimated scf accuracy    <       0.00000805 Ry
[tb_dev] Currently allocated     2.41E+01 Mbytes, locked:    0 /   6
[tb_pin] Currently allocated     0.00E+00 Mbytes, locked:    0 /   0

     iteration # 24     ecut=    90.00 Ry     beta= 0.20
     Davidson diagonalization with overlap

---- Real-time Memory Report at c_bands before calling an iterative solver
         10670 MiB given to the printing process from OS
         -1894 MiB allocation reported by mallinfo(arena+hblkhd)
        463951 MiB available memory on the node where the printing process lives
     GPU memory used/free/total (MiB): 31635 / 33333 / 64969
------------------
     ethr =  5.78E-10,  avg # of iterations =  2.0

     negative rho (up, down):  3.982E-02 0.000E+00

     total cpu time spent up to now is      138.9 secs

     total energy              =   -9095.92985048 Ry
     estimated scf accuracy    <       0.00000155 Ry
[tb_dev] Currently allocated     2.41E+01 Mbytes, locked:    0 /   6
[tb_pin] Currently allocated     0.00E+00 Mbytes, locked:    0 /   0

     iteration # 25     ecut=    90.00 Ry     beta= 0.20
     Davidson diagonalization with overlap

---- Real-time Memory Report at c_bands before calling an iterative solver
         10670 MiB given to the printing process from OS
         -1894 MiB allocation reported by mallinfo(arena+hblkhd)
        463951 MiB available memory on the node where the printing process lives
     GPU memory used/free/total (MiB): 31635 / 33333 / 64969
------------------
     ethr =  1.11E-10,  avg # of iterations =  5.0

     negative rho (up, down):  3.983E-02 0.000E+00

     total cpu time spent up to now is      142.9 secs

     total energy              =   -9095.92985081 Ry
     estimated scf accuracy    <       0.00000111 Ry
[tb_dev] Currently allocated     2.41E+01 Mbytes, locked:    0 /   6
[tb_pin] Currently allocated     0.00E+00 Mbytes, locked:    0 /   0

     iteration # 26     ecut=    90.00 Ry     beta= 0.20
     Davidson diagonalization with overlap

---- Real-time Memory Report at c_bands before calling an iterative solver
         10670 MiB given to the printing process from OS
         -1894 MiB allocation reported by mallinfo(arena+hblkhd)
        463951 MiB available memory on the node where the printing process lives
     GPU memory used/free/total (MiB): 31635 / 33333 / 64969
------------------
     ethr =  7.95E-11,  avg # of iterations =  2.0

     negative rho (up, down):  3.984E-02 0.000E+00

     total cpu time spent up to now is      146.4 secs

     total energy              =   -9095.92985088 Ry
     estimated scf accuracy    <       0.00000042 Ry
[tb_dev] Currently allocated     2.41E+01 Mbytes, locked:    0 /   6
[tb_pin] Currently allocated     0.00E+00 Mbytes, locked:    0 /   0

     iteration # 27     ecut=    90.00 Ry     beta= 0.20
     Davidson diagonalization with overlap

---- Real-time Memory Report at c_bands before calling an iterative solver
         10670 MiB given to the printing process from OS
         -1894 MiB allocation reported by mallinfo(arena+hblkhd)
        463951 MiB available memory on the node where the printing process lives
     GPU memory used/free/total (MiB): 31635 / 33333 / 64969
------------------
     ethr =  3.04E-11,  avg # of iterations =  4.0

     negative rho (up, down):  3.985E-02 0.000E+00

     total cpu time spent up to now is      150.4 secs

     total energy              =   -9095.92985099 Ry
     estimated scf accuracy    <       0.00000015 Ry
[tb_dev] Currently allocated     2.41E+01 Mbytes, locked:    0 /   6
[tb_pin] Currently allocated     0.00E+00 Mbytes, locked:    0 /   0

     iteration # 28     ecut=    90.00 Ry     beta= 0.20
     Davidson diagonalization with overlap

---- Real-time Memory Report at c_bands before calling an iterative solver
         10670 MiB given to the printing process from OS
         -1894 MiB allocation reported by mallinfo(arena+hblkhd)
        463952 MiB available memory on the node where the printing process lives
     GPU memory used/free/total (MiB): 31635 / 33333 / 64969
------------------
     ethr =  1.09E-11,  avg # of iterations =  4.0

     negative rho (up, down):  3.987E-02 0.000E+00

     total cpu time spent up to now is      153.9 secs

     End of self-consistent calculation

          k = 0.0000 0.0000 0.0000 (371318 PWs)   bands (ev):

   -72.1463 -72.1227 -72.1189 -72.1040 -72.0751 -72.0571 -71.9661 -71.9391
   -71.9373 -71.9109 -71.9023 -71.8950 -71.8942 -71.8455 -71.8427 -71.8308
   -71.8175 -71.8056 -71.7762 -71.7302 -71.5843 -71.5703 -71.5651 -71.5627
   -45.4993 -45.4070 -45.3001 -45.2143 -45.1907 -45.1492 -45.1312 -45.0843
   -45.0715 -45.0225 -44.9989 -44.9440 -44.9069 -44.8367 -44.8132 -44.7920
   -44.7843 -44.7374 -44.7286 -44.7008 -44.6986 -44.6948 -44.6829 -44.6821
   -44.6740 -44.6702 -44.6675 -44.6552 -44.6551 -44.6330 -44.6297 -44.6296
   -44.6281 -44.6119 -44.6027 -44.5859 -44.5741 -44.5710 -44.5674 -44.5666
   -44.5584 -44.5523 -44.5369 -44.5222 -44.5149 -44.5104 -44.5030 -44.4880
   -44.4599 -44.4557 -44.4419 -44.4378 -44.4253 -44.4139 -44.4004 -44.3928
[...]
     atom  143 type  1   force =     0.00000654    0.00000488   -0.00000021
     atom  144 type  1   force =     0.00001044   -0.00000149   -0.00000133
     atom  145 type  1   force =    -0.00003062    0.00002502   -0.00000020
     atom  146 type  1   force =    -0.00000610   -0.00001230    0.00000108
     atom  147 type  1   force =    -0.00001847   -0.00000179   -0.00002070
     atom  148 type  1   force =     0.00000281   -0.00000903   -0.00001893
     atom  149 type  1   force =     0.00000379    0.00000625   -0.00003046
     atom  150 type  4   force =    -0.00000694   -0.00000394   -0.00000933
     atom  151 type  2   force =    -0.00000298   -0.00000092   -0.00000545
     atom  152 type  2   force =     0.00000289    0.00000058   -0.00000334
     atom  153 type  2   force =     0.00000285    0.00000370   -0.00000342
     atom  154 type  2   force =    -0.00000196    0.00000530    0.00000066
     atom  155 type  2   force =    -0.00000196   -0.00000131    0.00000201
     atom  156 type  2   force =    -0.00000106   -0.00000224   -0.00000024
     atom  157 type  2   force =    -0.00001202   -0.00000633    0.00000343
     atom  158 type  2   force =     0.00001101   -0.00000736    0.00000247
     atom  159 type  2   force =     0.00000331    0.00001076    0.00000109
     atom  160 type  2   force =     0.00000228    0.00000734   -0.00000807
     atom  161 type  2   force =    -0.00000852   -0.00001140   -0.00000986
     atom  162 type  2   force =     0.00001310    0.00000063   -0.00000912
     atom  163 type  2   force =    -0.00000130    0.00000415    0.00000247
     atom  164 type  2   force =    -0.00000181    0.00000058   -0.00000275
     atom  165 type  3   force =     0.00000950   -0.00000562   -0.00000696
     atom  166 type  3   force =     0.00001219   -0.00000547   -0.00000651
     atom  167 type  1   force =     0.00002501   -0.00001189    0.00001233
     atom  168 type  1   force =    -0.00000023   -0.00001046   -0.00002083
     atom  169 type  1   force =    -0.00002768   -0.00001221   -0.00002101
     atom  170 type  1   force =     0.00000223   -0.00002071   -0.00002408
     atom  171 type  1   force =     0.00001135    0.00001665   -0.00001803
     atom  172 type  1   force =    -0.00001173   -0.00003264    0.00000739
     atom  173 type  1   force =    -0.00000931    0.00002751   -0.00000836
     atom  174 type  1   force =    -0.00000782   -0.00000096    0.00002322
     atom  175 type  4   force =     0.00000448    0.00000612   -0.00000743
     atom  176 type  2   force =    -0.00000714   -0.00000444   -0.00000128
     atom  177 type  2   force =     0.00000093   -0.00000312    0.00000021
     atom  178 type  2   force =     0.00000106   -0.00000075   -0.00000084
     atom  179 type  2   force =     0.00000026    0.00000791    0.00000379
     atom  180 type  2   force =    -0.00000989    0.00000357   -0.00000187
     atom  181 type  2   force =     0.00001120    0.00000492   -0.00000739
     atom  182 type  2   force =    -0.00000840    0.00000422   -0.00000424
     atom  183 type  2   force =     0.00000684   -0.00000814   -0.00000782
     atom  184 type  2   force =     0.00000146    0.00001243   -0.00000222
     atom  185 type  2   force =     0.00000488    0.00001287   -0.00000747
     atom  186 type  2   force =    -0.00000115    0.00000778   -0.00000903
     atom  187 type  2   force =     0.00000903   -0.00000942   -0.00000328
     atom  188 type  2   force =     0.00000149   -0.00000370   -0.00000098
     atom  189 type  2   force =     0.00000257    0.00000673   -0.00000995
     atom  190 type  3   force =    -0.00001352    0.00004413    0.00000603
     atom  191 type  3   force =    -0.00003050   -0.00001865   -0.00000008
     atom  192 type  1   force =     0.00003003    0.00000035   -0.00001023
     atom  193 type  1   force =    -0.00000256    0.00000661   -0.00005872
     atom  194 type  1   force =     0.00000538   -0.00000272    0.00001078
     atom  195 type  1   force =    -0.00002371    0.00000267    0.00000021
     atom  196 type  1   force =    -0.00001752   -0.00001913   -0.00000168
     atom  197 type  1   force =    -0.00004332   -0.00002348   -0.00000702
     atom  198 type  1   force =    -0.00002162    0.00002782   -0.00000654
     atom  199 type  1   force =    -0.00000416   -0.00001434   -0.00003069
     atom  200 type  4   force =    -0.00000944    0.00000340   -0.00001817
     atom  201 type  2   force =    -0.00000774   -0.00000036   -0.00000737
     atom  202 type  2   force =     0.00000359   -0.00000510    0.00000063
     atom  203 type  2   force =    -0.00000357    0.00000073    0.00000052
     atom  204 type  2   force =    -0.00000121    0.00000262   -0.00000204
     atom  205 type  2   force =     0.00000657   -0.00000211   -0.00000587
     atom  206 type  2   force =     0.00000335   -0.00000096   -0.00000468
     atom  207 type  2   force =    -0.00000760   -0.00000060   -0.00000327
     atom  208 type  2   force =     0.00000558   -0.00001028    0.00000184
     atom  209 type  2   force =     0.00000018    0.00000953   -0.00000031
     atom  210 type  2   force =    -0.00000333    0.00000786   -0.00000802
     atom  211 type  2   force =    -0.00000211   -0.00000247   -0.00000425
     atom  212 type  2   force =     0.00001170   -0.00000371   -0.00000913
     atom  213 type  2   force =     0.00000159    0.00000104   -0.00000206
     atom  214 type  2   force =     0.00000736   -0.00000114   -0.00000491
     atom  215 type  3   force =    -0.00000764   -0.00001045    0.00000663
     atom  216 type  3   force =     0.00000398    0.00000760   -0.00000542
     atom  217 type  1   force =     0.00002427    0.00000338   -0.00000776
     atom  218 type  1   force =     0.00001218   -0.00000198   -0.00001037
     atom  219 type  1   force =    -0.00000775    0.00001564   -0.00001161
     atom  220 type  1   force =     0.00002100   -0.00000823   -0.00001621
     atom  221 type  1   force =     0.00001360    0.00002092   -0.00000896
     atom  222 type  1   force =     0.00000218   -0.00000333    0.00000016
     atom  223 type  1   force =    -0.00000777    0.00000688    0.00000461
     atom  224 type  1   force =     0.00001122    0.00000793    0.00000825
     atom  225 type  4   force =    -0.00000252   -0.00000242   -0.00000187
     atom  226 type  2   force =     0.00000044    0.00000312    0.00000039
     atom  227 type  2   force =     0.00000301   -0.00000538   -0.00000899
     atom  228 type  2   force =    -0.00000079    0.00000504   -0.00000829
     atom  229 type  2   force =     0.00000051    0.00000032   -0.00000240
     atom  230 type  2   force =    -0.00000213   -0.00000595   -0.00000331
     atom  231 type  2   force =    -0.00000439   -0.00000179   -0.00000402
     atom  232 type  2   force =    -0.00000834   -0.00000666    0.00000859
     atom  233 type  2   force =     0.00000350   -0.00000502   -0.00000451
     atom  234 type  2   force =     0.00000606    0.00000436   -0.00000208
     atom  235 type  2   force =    -0.00000077    0.00000388   -0.00000846
     atom  236 type  2   force =    -0.00001492   -0.00000922   -0.00000934
     atom  237 type  2   force =     0.00001451   -0.00000595   -0.00000526
     atom  238 type  2   force =    -0.00000111   -0.00000424    0.00000960
     atom  239 type  2   force =    -0.00000507   -0.00000263   -0.00001343
     atom  240 type  3   force =     0.00001922    0.00004969    0.00001203
     atom  241 type  3   force =     0.00001436    0.00002421    0.00001122
     atom  242 type  1   force =    -0.00001481    0.00003028   -0.00000604
     atom  243 type  1   force =     0.00000730    0.00001669   -0.00000323
     atom  244 type  1   force =    -0.00003024    0.00000110   -0.00000994
     atom  245 type  1   force =     0.00001608   -0.00001047   -0.00001748
     atom  246 type  1   force =     0.00000322    0.00002124   -0.00000532
     atom  247 type  1   force =     0.00000146    0.00000792   -0.00001350
     atom  248 type  1   force =     0.00003223   -0.00000196   -0.00001843
     atom  249 type  1   force =     0.00000967    0.00000782    0.00001330
     atom  250 type  4   force =     0.00000783    0.00000325   -0.00000563
     atom  251 type  2   force =    -0.00000970   -0.00000192   -0.00000692
     atom  252 type  2   force =     0.00000255   -0.00000624   -0.00000232
     atom  253 type  2   force =    -0.00000170    0.00000036    0.00000093
     atom  254 type  2   force =    -0.00000158    0.00000387   -0.00000107
     atom  255 type  2   force =     0.00000222    0.00000376   -0.00000208
     atom  256 type  2   force =     0.00000080   -0.00000286   -0.00000131
     atom  257 type  2   force =    -0.00000869   -0.00000551   -0.00000484
     atom  258 type  2   force =     0.00000221   -0.00001007   -0.00000284
     atom  259 type  2   force =    -0.00000281    0.00000973   -0.00000259
     atom  260 type  2   force =    -0.00000201    0.00001088   -0.00000391
     atom  261 type  2   force =    -0.00000576   -0.00000668   -0.00000487
     atom  262 type  2   force =     0.00000883    0.00000590   -0.00000751
     atom  263 type  2   force =     0.00000379    0.00000096    0.00000460
     atom  264 type  2   force =    -0.00000527   -0.00000168   -0.00000615
     atom  265 type  3   force =     0.00004164    0.00005097    0.00001757
     atom  266 type  3   force =     0.00001873   -0.00001817   -0.00000543
     atom  267 type  1   force =    -0.00000929    0.00002464   -0.00001086
     atom  268 type  1   force =     0.00000634    0.00001086    0.00000544
     atom  269 type  1   force =    -0.00000672    0.00000518   -0.00001998
     atom  270 type  1   force =     0.00002368   -0.00000431   -0.00000939
     atom  271 type  1   force =     0.00002200    0.00001011   -0.00000858
     atom  272 type  1   force =     0.00000135    0.00000739   -0.00001103
     atom  273 type  1   force =     0.00001492    0.00000512   -0.00001500
     atom  274 type  1   force =     0.00001242   -0.00000216    0.00000977
     atom  275 type  4   force =    -0.00000079    0.00000234   -0.00001371
     atom  276 type  2   force =     0.00000242    0.00000402   -0.00000445
     atom  277 type  2   force =     0.00000495    0.00000272   -0.00000767
     atom  278 type  2   force =     0.00000074    0.00000035   -0.00000070
     atom  279 type  2   force =     0.00000113    0.00000734   -0.00000103
     atom  280 type  2   force =    -0.00000209    0.00000142   -0.00000089
     atom  281 type  2   force =     0.00000068   -0.00000271    0.00000026
     atom  282 type  2   force =    -0.00001174   -0.00000661   -0.00000491
     atom  283 type  2   force =     0.00000894   -0.00000215    0.00000155
     atom  284 type  2   force =     0.00000545    0.00000937   -0.00000520
     atom  285 type  2   force =     0.00000187    0.00000636   -0.00000672
     atom  286 type  2   force =    -0.00000935   -0.00001155   -0.00000979
     atom  287 type  2   force =     0.00001162    0.00000217   -0.00001078
     atom  288 type  2   force =    -0.00000402    0.00000007   -0.00000103
     atom  289 type  2   force =     0.00000739   -0.00000079   -0.00001501
     atom  290 type  3   force =    -0.00005364    0.00001532   -0.00000684
     atom  291 type  3   force =    -0.00004812   -0.00001343    0.00002773
     atom  292 type  1   force =     0.00002779   -0.00000860   -0.00000588
     atom  293 type  1   force =     0.00000323   -0.00001711   -0.00001252
     atom  294 type  1   force =    -0.00001206   -0.00000442    0.00000226
     atom  295 type  1   force =     0.00000869   -0.00002091    0.00000399
     atom  296 type  1   force =     0.00002064    0.00001717   -0.00001357
     atom  297 type  1   force =    -0.00000655   -0.00000103   -0.00001898
     atom  298 type  1   force =     0.00001082    0.00000032   -0.00000336
     atom  299 type  1   force =    -0.00000915   -0.00000573   -0.00000110
     atom  300 type  4   force =     0.00001167    0.00000235   -0.00000807

     Total force =     0.955884     Total SCF correction =     0.000406


     Computing stress (Cartesian axis) and pressure


     negative rho (up, down):  3.987E-02 0.000E+00
          total   stress  (Ry/bohr**3)                   (kbar)     P=        3.55
   0.00004230  -0.00000299   0.00001296            6.22       -0.44        1.91
  -0.00000299   0.00004346  -0.00000987           -0.44        6.39       -1.45
   0.00001296  -0.00000987  -0.00001346            1.91       -1.45       -1.98

     kinetic stress (kbar)   5332.97      0.08      1.15
                                0.08   5333.57     -0.91
                                1.15     -0.91   5326.40

     local   stress (kbar)-652260.24      2.46    -30.60
                                2.46-652252.16     30.12
                              -30.60     30.12 645889.50

     nonloc. stress (kbar)    957.53      0.27     -0.11
                                0.27    958.00     -0.24
                               -0.11     -0.24    954.79

     hartree stress (kbar) 326753.49     -3.93      7.78
                               -3.93 326755.90    -13.17
                                7.78    -13.17-320893.43

     exc-cor stress (kbar)  -1263.89      0.07      0.09
                                0.07  -1263.99     -0.03
                                0.09     -0.03  -1265.66

     corecor stress (kbar)   -292.85     -0.01     -0.01
                               -0.01   -292.85      0.01
                               -0.01      0.01   -292.75

     ewald   stress (kbar) 320779.20      0.62     23.61
                                0.62 320767.93    -17.23
                               23.61    -17.23-329720.83

     hubbard stress (kbar)      0.00      0.00      0.00
                                0.00      0.00      0.00
                                0.00      0.00      0.00

     DFT-D   stress (kbar)      0.00      0.00      0.00
                                0.00      0.00      0.00
                                0.00      0.00      0.00

     XDM     stress (kbar)      0.00      0.00      0.00
                                0.00      0.00      0.00
                                0.00      0.00      0.00

     dft-nl  stress (kbar)      0.00      0.00      0.00
                                0.00      0.00      0.00
                                0.00      0.00      0.00

     TS-vdW  stress (kbar)      0.00      0.00      0.00
                                0.00      0.00      0.00
                                0.00      0.00      0.00

     MDB     stress (kbar)      0.00      0.00      0.00
                                0.00      0.00      0.00
                                0.00      0.00      0.00

     3D-RISM stress (kbar)      0.00      0.00      0.00
                                0.00      0.00      0.00
                                0.00      0.00      0.00


     Writing all to output data dir ./tmp/pwscf.save/
 
     init_run     :     31.73s CPU     37.34s WALL (       1 calls)
     electrons    :    109.25s CPU    116.16s WALL (       1 calls)
     forces       :      3.12s CPU      3.33s WALL (       1 calls)
     stress       :     81.03s CPU     83.50s WALL (       1 calls)

     Called by init_run:
     wfcinit      :      3.47s CPU      5.93s WALL (       1 calls)
                                        5.93s GPU  (       1 calls)
     wfcinit:atom :      0.01s CPU      0.01s WALL (       1 calls)
                                        0.01s GPU  (       1 calls)
     wfcinit:wfcr :      1.25s CPU      2.95s WALL (       1 calls)
                                        2.95s GPU  (       1 calls)
     potinit      :     18.71s CPU     18.98s WALL (       1 calls)
     hinit0       :      7.19s CPU      7.45s WALL (       1 calls)

     Called by electrons:
     c_bands      :     69.26s CPU     70.85s WALL (      28 calls)
     sum_band     :     15.29s CPU     15.90s WALL (      28 calls)
     v_of_rho     :      3.11s CPU      3.28s WALL (      29 calls)
     v_h          :      1.71s CPU      1.79s WALL (      29 calls)
     v_xc         :      1.54s CPU      1.62s WALL (      31 calls)
     newd         :      2.40s CPU      4.98s WALL (      29 calls)
                                        4.98s GPU  (      29 calls)
     PAW_pot      :      3.15s CPU      3.16s WALL (      29 calls)
     mix_rho      :      7.68s CPU      7.92s WALL (      28 calls)

     Called by c_bands:
     init_us_2    :      0.45s CPU      0.62s WALL (      57 calls)
     init_us_2:gp :      0.45s CPU      0.62s WALL (      57 calls)
     regterg      :     60.39s CPU     61.80s WALL (      29 calls)

     Called by sum_band:
     sum_band:wei :      0.01s CPU      0.01s WALL (      28 calls)
                                        0.01s GPU  (      28 calls)
     sum_band:loo :     12.03s CPU     12.42s WALL (      28 calls)
                                       12.42s GPU  (      28 calls)
     sum_band:buf :      1.80s CPU      1.83s WALL (      28 calls)
                                        1.83s GPU  (      28 calls)
     sum_band:ini :      0.22s CPU      0.46s WALL (      28 calls)
                                        0.46s GPU  (      28 calls)
     sum_band:cal :      1.97s CPU      2.03s WALL (      28 calls)
                                        2.03s GPU  (      28 calls)
     sum_band:bec :      0.19s CPU      0.19s WALL (      28 calls)
                                        0.19s GPU  (      28 calls)
     addusdens    :      2.00s CPU      2.10s WALL (      28 calls)
                                        2.10s GPU  (      28 calls)
     addusd:skk   :      0.42s CPU      0.44s WALL (     112 calls)
                                        0.43s GPU  (     112 calls)

     Called by *egterg:
     rdiaghg      :      6.28s CPU      6.94s WALL (     243 calls)
                                        6.94s GPU  (     243 calls)
     regterg:over :      3.68s CPU      3.76s WALL (     214 calls)
     regterg:upda :      2.01s CPU      2.07s WALL (     214 calls)
     regterg:last :      4.03s CPU      4.05s WALL (      63 calls)
     h_psi        :     38.27s CPU     40.39s WALL (     244 calls)
                                       40.39s GPU  (     244 calls)
     s_psi        :      1.06s CPU      4.86s WALL (     244 calls)
                                        4.72s GPU  (     244 calls)
     g_psi        :      0.00s CPU      0.19s WALL (     214 calls)
                                        0.19s GPU  (     214 calls)

     Called by h_psi:
     h_psi:calbec :      5.62s CPU      5.83s WALL (     244 calls)
                                        5.83s GPU  (     244 calls)
     vloc_psi     :     28.20s CPU     29.55s WALL (     244 calls)
                                       29.55s GPU  (     244 calls)
     add_vuspsi   :      0.49s CPU      4.81s WALL (     244 calls)
                                        4.80s GPU  (     244 calls)

     General routines
     calbec       :      7.99s CPU      8.38s WALL (     277 calls)
     fft          :      5.51s CPU      7.39s WALL (     337 calls)
                                        0.76s GPU  (     308 calls)
     ffts         :      2.85s CPU      3.50s WALL (      57 calls)
                                        0.15s GPU  (      28 calls)
     fftw         :     17.04s CPU     28.80s WALL (   15874 calls)
                                       28.59s GPU  (   15874 calls)
     interpolate  :      8.90s CPU     11.15s WALL (      29 calls)
 
     Parallel routines

     PAW routines
     PAW_pot      :      3.15s CPU      3.16s WALL (      29 calls)
 
     PWSCF        :   3m47.50s CPU   4m 8.02s WALL

 
   This run was terminated on:  13:26: 7  30Dec2023            

=------------------------------------------------------------------------------=
   JOB DONE.
=------------------------------------------------------------------------------=
