<?xml version="1.0" encoding="UTF-8"?>
<UPF version="2.0.1">
  <PP_INFO><![CDATA[
Generated using "atomic" code by A. Dal Corso  v.6.3MaX
Author: ADC
Generation date: 27May2022
Pseudopotential type: PAW
Element: Cu
Functional:  SLA  PW   PBX  PBC
    Suggested minimum cutoff for wavefunctions:  45. Ry
    Suggested minimum cutoff for charge density: 236. Ry
    The Pseudo was generated with a Scalar-Relativistic Calculation
    Local Potential by smoothing AE potential with Bessel fncs, cutoff radius:   1.9000
    Pseudopotential contains additional information for GIPAW reconstruction.
    Valence configuration:
    nl pn  l   occ       Rcut    Rcut US       E pseu
    4S  1  0  1.50      1.300      2.100    -0.380951
    4P  2  1  0.00      1.300      2.100    -0.067542
    3D  3  2  9.50      1.300      1.800    -0.522124
    Generation configuration:
    4S  1  0  1.50      1.300      2.100    -0.380945
    4S  1  0  0.00      1.300      2.100     6.100000
    4P  2  1  0.00      1.300      2.100    -0.067537
    4P  2  1  0.00      1.300      2.100     6.300000
    3D  3  2  9.50      1.300      1.800    -0.522111
    3D  3  2  0.00      1.300      1.800    -0.200000
    Pseudization used: troullier-martins
]]>
    <PP_INPUTFILE><![CDATA[
 &input
   title='Cu',
   zed=29.,
   rel=1,
   config='[Ar] 4s1.5 4p0 3d9.5',
   iswitch=3,
   dft='PBE'
 /
 &inputp
   lpaw=.true.,
   pseudotype=3,
   file_pseudopw='Cu.pbe-dn-kjpaw_psl.1.0.0.UPF',
   author='ADC',
   lloc=-1,
   rcloc=1.9,
   which_augfun='PSQ',
   rmatch_augfun_nc=.true.,
   nlcc=.true.,
   new_core_ps=.true.,
   rcore=1.0,
   tm=.true.
 /
6
4S  1  0  1.50  0.00  1.30  2.10  0.0
4S  1  0  0.00  6.10  1.30  2.10  0.0
4P  2  1  0.00  0.00  1.30  2.10  0.0
4P  2  1  0.00  6.30  1.30  2.10  0.0
3D  3  2  9.50  0.00  1.30  1.80  0.0
3D  3  2  0.00 -0.20  1.30  1.80  0.0
]]></PP_INPUTFILE>
  </PP_INFO>
  <!--
 END OF HUMAN READABLE SECTION 
-->
  <PP_HEADER generated="Generated using &quot;atomic&quot; code by A. Dal Corso  v.6.3MaX" author="ADC" date="27May2022" comment="" element="Cu" pseudo_type="PAW" relativistic="scalar" is_ultrasoft="true" is_paw="true" is_coulomb="false" has_so="false" has_wfc="true" has_gipaw="true" paw_as_gipaw="true" core_correction="true" functional=" SLA  PW   PBX  PBC" z_valence="1.100000000000e1" total_psenergy="-2.127795026821e2" wfc_cutoff="4.466409260079e1" rho_cutoff="2.358753522061e2" l_max="2" l_max_rho="4" l_local="-1" mesh_size="1199" number_of_wfc="3" number_of_proj="6"/>
  <PP_MESH dx="1.250000000000e-2" mesh="1199" xmin="-7.000000000000e0" rmax="1.000000000000e2" zmesh="2.900000000000e1">
    <PP_R>
      3.144420570877642e-5 3.183972512651800e-5 3.224021956608905e-5 3.264575160556048e-5
      3.305638461013861e-5 3.347218274206583e-5 3.389321097064615e-5 3.431953508239694e-5
      3.475122169132794e-5 3.518833824935016e-5 3.563095305681507e-5 3.607913527318685e-5
      3.653295492784863e-5 3.699248293104472e-5 3.745779108496063e-5 3.792895209494201e-5
      3.840603958085529e-5 3.888912808859077e-5 3.937829310171060e-5 3.987361105324338e-5
      4.037515933762670e-5 4.088301632280044e-5 4.139726136245175e-5 4.191797480841430e-5
      4.244523802322348e-5 4.297913339282929e-5 4.351974433946946e-5 4.406715533470429e-5
      4.462145191261546e-5 4.518272068317103e-5 4.575104934575833e-5 4.632652670288714e-5
      4.690924267406531e-5 4.749928830984887e-5 4.809675580606893e-5 4.870173851823729e-5
      4.931433097613360e-5 4.993462889857571e-5 5.056272920837596e-5 5.119873004748575e-5
      5.184273079233009e-5 5.249483206933558e-5 5.315513577065345e-5 5.382374507008043e-5
      5.450076443917991e-5 5.518629966360566e-5 5.588045785963127e-5 5.658334749088709e-5
      5.729507838530806e-5 5.801576175229451e-5 5.874551020008876e-5 5.948443775337042e-5
      6.023265987107309e-5 6.099029346442485e-5 6.175745691521621e-5 6.253427009429707e-5
      6.332085438030712e-5 6.411733267864141e-5 6.492382944065439e-5 6.574047068310609e-5
      6.656738400785205e-5 6.740469862178161e-5 6.825254535700678e-5 6.911105669130480e-5
      6.998036676881841e-5 7.086061142101583e-5 7.175192818791482e-5 7.265445633957358e-5
      7.356833689785200e-5 7.449371265844671e-5 7.543072821320294e-5 7.637952997270748e-5
      7.734026618916563e-5 7.831308697956575e-5 7.929814434913572e-5 8.029559221509357e-5
      8.130558643069769e-5 8.232828480959908e-5 8.336384715050013e-5 8.441243526212356e-5
      8.547421298849510e-5 8.654934623454478e-5 8.763800299202959e-5 8.874035336578274e-5
      8.985656960029303e-5 9.098682610661799e-5 9.213129948963623e-5 9.329016857564230e-5
      9.446361444028856e-5 9.565182043687891e-5 9.685497222501770e-5 9.807325779961960e-5
      9.930686752028427e-5 1.005559941410403e-4 1.018208328404637e-4 1.031015812521745e-4
      1.043984394957178e-4 1.057116102078325e-4 1.070412985741141e-4 1.083877123610752e-4
      1.097510619486092e-4 1.111315603628630e-4 1.125294233095223e-4 1.139448692075166e-4
      1.153781192231473e-4 1.168293973046452e-4 1.182989302171633e-4 1.197869475782088e-4
      1.212936818935217e-4 1.228193685934045e-4 1.243642460695079e-4 1.259285557120808e-4
      1.275125419476873e-4 1.291164522773993e-4 1.307405373154692e-4 1.323850508284884e-4
      1.340502497750390e-4 1.357363943458442e-4 1.374437480044238e-4 1.391725775282606e-4
      1.409231530504851e-4 1.426957481020841e-4 1.444906396546406e-4 1.463081081636117e-4
      1.481484376121497e-4 1.500119155554748e-4 1.518988331658071e-4 1.538094852778621e-4
      1.557441704349195e-4 1.577031909354715e-4 1.596868528804567e-4 1.616954662210901e-4
      1.637293448072923e-4 1.657888064367306e-4 1.678741729044746e-4 1.699857700532776e-4
      1.721239278244903e-4 1.742889803096143e-4 1.764812658025052e-4 1.787011268522319e-4
      1.809489103165995e-4 1.832249674163474e-4 1.855296537900283e-4 1.878633295495767e-4
      1.902263593365783e-4 1.926191123792448e-4 1.950419625501072e-4 1.974952884244340e-4
      1.999794733393842e-4 2.024949054539052e-4 2.050419778093826e-4 2.076210883910537e-4
      2.102326401901944e-4 2.128770412670863e-4 2.155547048147780e-4 2.182660492236464e-4
      2.210114981467719e-4 2.237914805661340e-4 2.266064308596418e-4 2.294567888690060e-4
      2.323429999684644e-4 2.352655151343733e-4 2.382247910156735e-4 2.412212900052418e-4
      2.442554803121422e-4 2.473278360347827e-4 2.504388372349963e-4 2.535889700130495e-4
      2.567787265835979e-4 2.600086053525957e-4 2.632791109951711e-4 2.665907545344852e-4
      2.699440534215784e-4 2.733395316162240e-4 2.767777196687986e-4 2.802591548031797e-4
      2.837843810006907e-4 2.873539490850969e-4 2.909684168086735e-4 2.946283489393569e-4
      2.983343173489874e-4 3.020869011026699e-4 3.058866865492503e-4 3.097342674129350e-4
      3.136302448860629e-4 3.175752277230393e-4 3.215698323354595e-4 3.256146828884211e-4
      3.297104113980519e-4 3.338576578302652e-4 3.380570702007526e-4 3.423093046762418e-4
      3.466150256770202e-4 3.509749059807540e-4 3.553896268276121e-4 3.598598780267070e-4
      3.643863580638846e-4 3.689697742108595e-4 3.736108426357294e-4 3.783102885148789e-4
      3.830688461462864e-4 3.878872590642643e-4 3.927662801556337e-4 3.977066717773663e-4
      4.027092058757052e-4 4.077746641067800e-4 4.129038379587456e-4 4.180975288754517e-4
      4.233565483816703e-4 4.286817182098997e-4 4.340738704287586e-4 4.395338475730023e-4
      4.450625027751681e-4 4.506606998988786e-4 4.563293136738256e-4 4.620692298324424e-4
      4.678813452483080e-4 4.737665680762809e-4 4.797258178944007e-4 4.857600258475770e-4
      4.918701347930778e-4 4.980570994478580e-4 5.043218865377317e-4 5.106654749484275e-4
      5.170888558785419e-4 5.235930329944120e-4 5.301790225869460e-4 5.368478537304169e-4
      5.436005684432581e-4 5.504382218508836e-4 5.573618823505474e-4 5.643726317782907e-4
      5.714715655779743e-4 5.786597929724469e-4 5.859384371368650e-4 5.933086353741856e-4
      6.007715392928798e-4 6.083283149868678e-4 6.159801432177253e-4 6.237282195991831e-4
      6.315737547839372e-4 6.395179746528237e-4 6.475621205063591e-4 6.557074492586984e-4
      6.639552336340321e-4 6.723067623654481e-4 6.807633403963028e-4 6.893262890841183e-4
      6.979969464070480e-4 7.067766671729398e-4 7.156668232310257e-4 7.246688036862770e-4
      7.337840151164543e-4 7.430138817918887e-4 7.523598458980265e-4 7.618233677607739e-4
      7.714059260746758e-4 7.811090181339644e-4 7.909341600665148e-4 8.008828870707440e-4
      8.109567536554865e-4 8.211573338828924e-4 8.314862216143750e-4 8.419450307596566e-4
      8.525353955289447e-4 8.632589706882809e-4 8.741174318181015e-4 8.851124755750494e-4
      8.962458199570809e-4 9.075192045719074e-4 9.189343909088098e-4 9.304931626138789e-4
      9.421973257687092e-4 9.540487091726060e-4 9.660491646283386e-4 9.782005672314861e-4
      9.905048156634287e-4 1.002963832488017e-3 1.015579564451976e-3 1.028353982789093e-3
      1.041289083528224e-3 1.054386887805176e-3 1.067649442178514e-3 1.081078818949341e-3
      1.094677116485102e-3 1.108446459547451e-3 1.122388999624256e-3 1.136506915265771e-3
      1.150802412425037e-3 1.165277724802571e-3 1.179935114195380e-3 1.194776870850380e-3
      1.209805313822243e-3 1.225022791335757e-3 1.240431681152747e-3 1.256034390943594e-3
      1.271833358663449e-3 1.287831052933159e-3 1.304029973425003e-3 1.320432651253264e-3
      1.337041649369724e-3 1.353859562964132e-3 1.370889019869701e-3 1.388132680973719e-3
      1.405593240633318e-3 1.423273427096467e-3 1.441176002928273e-3 1.459303765442632e-3
      1.477659547139317e-3 1.496246216146565e-3 1.515066676669221e-3 1.534123869442535e-3
      1.553420772191649e-3 1.572960400096876e-3 1.592745806264832e-3 1.612780082205482e-3
      1.633066358315205e-3 1.653607804365913e-3 1.674407630000344e-3 1.695469085233572e-3
      1.716795460960825e-3 1.738390089471703e-3 1.760256344970842e-3 1.782397644105152e-3
      1.804817446497668e-3 1.827519255288131e-3 1.850506617680349e-3 1.873783125496465e-3
      1.897352415738181e-3 1.921218171155048e-3 1.945384120819909e-3 1.969854040711562e-3
      1.994631754304775e-3 2.019721133167709e-3 2.045126097566852e-3 2.070850617079584e-3
      2.096898711214413e-3 2.123274450039042e-3 2.149981954816326e-3 2.177025398648220e-3
      2.204409007127847e-3 2.232137058999743e-3 2.260213886828426e-3 2.288643877675367e-3
      2.317431473784474e-3 2.346581173276213e-3 2.376097530850434e-3 2.405985158498058e-3
      2.436248726221711e-3 2.466892962765421e-3 2.497922656353499e-3 2.529342655438694e-3
      2.561157869459790e-3 2.593373269608705e-3 2.625993889607253e-3 2.659024826493680e-3
      2.692471241419075e-3 2.726338360453817e-3 2.760631475404158e-3 2.795355944639077e-3
      2.830517193927545e-3 2.866120717286296e-3 2.902172077838290e-3 2.938676908681961e-3
      2.975640913771397e-3 3.013069868807599e-3 3.050969622140942e-3 3.089346095684991e-3
      3.128205285841812e-3 3.167553264438927e-3 3.207396179678051e-3 3.247740257095748e-3
      3.288591800536195e-3 3.329957193136168e-3 3.371842898322416e-3 3.414255460821597e-3
      3.457201507682888e-3 3.500687749313486e-3 3.544720980527118e-3 3.589308081605747e-3
      3.634456019374632e-3 3.680171848290904e-3 3.726462711545839e-3 3.773335842181000e-3
      3.820798564218413e-3 3.868858293804956e-3 3.917522540371165e-3 3.966798907804567e-3
      4.016695095637829e-3 4.067218900251813e-3 4.118378216093780e-3 4.170181036910920e-3
      4.222635456999377e-3 4.275749672469010e-3 4.329531982524045e-3 4.383990790759848e-3
      4.439134606476008e-3 4.494972046005921e-3 4.551511834063112e-3 4.608762805104500e-3
      4.666733904710783e-3 4.725434190984223e-3 4.784872835963975e-3 4.845059127059248e-3
      4.906002468500471e-3 4.967712382808734e-3 5.030198512283704e-3 5.093470620510237e-3
      5.157538593883969e-3 5.222412443156093e-3 5.288102304997534e-3 5.354618443582862e-3
      5.421971252194058e-3 5.490171254844495e-3 5.559229107923342e-3 5.629155601860635e-3
      5.699961662813329e-3 5.771658354372502e-3 5.844256879292075e-3 5.917768581239270e-3
      5.992204946567075e-3 6.067577606109018e-3 6.143898336996500e-3 6.221179064498995e-3
      6.299431863887406e-3 6.378668962320837e-3 6.458902740757139e-3 6.540145735887425e-3
      6.622410642094972e-3 6.705710313438749e-3 6.790057765661864e-3 6.875466178225351e-3
      6.961948896367431e-3 7.049519433188761e-3 7.138191471763888e-3 7.227978867279234e-3
      7.318895649198037e-3 7.410956023452436e-3 7.504174374663207e-3 7.598565268387380e-3
      7.694143453394132e-3 7.790923863969340e-3 7.888921622249052e-3 7.988152040582376e-3
      8.088630623924063e-3 8.190373072257175e-3 8.293395283046284e-3 8.397713353721407e-3
      8.503343584193331e-3 8.610302479400472e-3 8.718606751887808e-3 8.828273324418280e-3
      8.939319332616952e-3 9.051762127648534e-3 9.165619278928506e-3 9.280908576868407e-3
      9.397648035655608e-3 9.515855896068041e-3 9.635550628324395e-3 9.756750934970103e-3
      9.879475753799658e-3 1.000374426081570e-2 1.012957587322527e-2 1.025699025247382e-2
      1.038600730731732e-2 1.051664719693308e-2 1.064893033406965e-2 1.078287738823634e-2
      1.091850928893288e-2 1.105584722891968e-2 1.119491266752930e-2 1.133572733401945e-2
      1.147831323096826e-2 1.162269263771222e-2 1.176888811382738e-2 1.191692250265429e-2
      1.206681893486743e-2 1.221860083208927e-2 1.237229191055006e-2 1.252791618479350e-2
      1.268549797142904e-2 1.284506189293148e-2 1.300663288148818e-2 1.317023618289479e-2
      1.333589736050005e-2 1.350364229919996e-2 1.367349720948252e-2 1.384548863152299e-2
      1.401964343933101e-2 1.419598884494961e-2 1.437455240270719e-2 1.455536201352295e-2
      1.473844592926644e-2 1.492383275717198e-2 1.511155146430861e-2 1.530163138210620e-2
      1.549410221093868e-2 1.568899402476461e-2 1.588633727582642e-2 1.608616279940858e-2
      1.628850181865568e-2 1.649338594945118e-2 1.670084720535733e-2 1.691091800261746e-2
      1.712363116522103e-2 1.733901993003244e-2 1.755711795198446e-2 1.777795930933670e-2
      1.800157850900057e-2 1.822801049193096e-2 1.845729063858587e-2 1.868945477445473e-2
      1.892453917565609e-2 1.916258057460592e-2 1.940361616575711e-2 1.964768361141114e-2
      1.989482104760299e-2 2.014506709005986e-2 2.039846084023501e-2 2.065504189141744e-2
      2.091485033491840e-2 2.117792676633579e-2 2.144431229189725e-2 2.171404853488312e-2
      2.198717764213013e-2 2.226374229061697e-2 2.254378569413267e-2 2.282735161002877e-2
      2.311448434605654e-2 2.340522876729016e-2 2.369963030313697e-2 2.399773495443594e-2
      2.429958930064530e-2 2.460524050712079e-2 2.491473633248527e-2 2.522812513609110e-2
      2.554545588557648e-2 2.586677816451663e-2 2.619214218017134e-2 2.652159877133004e-2
      2.685519941625534e-2 2.719299624072678e-2 2.753504202618542e-2 2.788139021798113e-2
      2.823209493372353e-2 2.858721097173795e-2 2.894679381962784e-2 2.931089966294478e-2
      2.967958539396753e-2 3.005290862059167e-2 3.043092767533087e-2 3.081370162443158e-2
      3.120129027710206e-2 3.159375419485787e-2 3.199115470098461e-2 3.239355389011986e-2
      3.280101463795566e-2 3.321360061106283e-2 3.363137627683908e-2 3.405440691358214e-2
      3.448275862068966e-2 3.491649832898740e-2 3.535569381118722e-2 3.580041369247675e-2
      3.625072746124224e-2 3.670670547992618e-2 3.716841899602179e-2 3.763594015320524e-2
      3.810934200260856e-2 3.858869851423385e-2 3.907408458851125e-2 3.956557606800249e-2
      4.006324974925116e-2 4.056718339478245e-2 4.107745574525376e-2 4.159414653175796e-2
      4.211733648828172e-2 4.264710736432018e-2 4.318354193765051e-2 4.372672402726621e-2
      4.427673850647384e-2 4.483367131615487e-2 4.539760947819387e-2 4.596864110907598e-2
      4.654685543365531e-2 4.713234279909642e-2 4.772519468899144e-2 4.832550373765427e-2
      4.893336374459510e-2 4.954886968917674e-2 5.017211774545522e-2 5.080320529720744e-2
      5.144223095314727e-2 5.208929456233356e-2 5.274449722977171e-2 5.340794133221149e-2
      5.407973053414377e-2 5.475996980399806e-2 5.544876543054427e-2 5.614622503950039e-2
      5.685245761034925e-2 5.756757349336700e-2 5.829168442686523e-2 5.902490355465053e-2
      5.976734544370332e-2 6.051912610207926e-2 6.128036299703582e-2 6.205117507338652e-2
      6.283168277208655e-2 6.362200804905176e-2 6.442227439421456e-2 6.523260685081967e-2
      6.605313203496195e-2 6.688397815537086e-2 6.772527503344305e-2 6.857715412352730e-2
      6.943974853346473e-2 7.031319304538675e-2 7.119762413677543e-2 7.209318000178817e-2
      7.300000057285086e-2 7.391822754252274e-2 7.484800438563597e-2 7.578947638171391e-2
      7.674279063767136e-2 7.770809611080029e-2 7.868554363204496e-2 7.967528592956913e-2
      8.067747765262041e-2 8.169227539569455e-2 8.271983772300338e-2 8.376032519325133e-2
      8.481390038472245e-2 8.588072792068386e-2 8.696097449510862e-2 8.805480889872161e-2
      8.916240204537402e-2 9.028392699874834e-2 9.141955899940026e-2 9.256947549214043e-2
      9.373385615376018e-2 9.491288292110713e-2 9.610674001951212e-2 9.731561399157584e-2
      9.853969372631607e-2 9.977917048868141e-2 1.010342379494381e-1 1.023050922154300e-1
      1.035919318602218e-1 1.048949579551264e-1 1.062143741006218e-1 1.075503864581654e-1
      1.089032037824058e-1 1.102730374538026e-1 1.116601015116539e-1 1.130646126875405e-1
      1.144867904391914e-1 1.159268569847735e-1 1.173850373376144e-1 1.188615593413613e-1
      1.203566537055807e-1 1.218705540418094e-1 1.234034969000545e-1 1.249557218057566e-1
      1.265274712972154e-1 1.281189909634863e-1 1.297305294827557e-1 1.313623386611953e-1
      1.330146734723094e-1 1.346877920967743e-1 1.363819559627785e-1 1.380974297868734e-1
      1.398344816153337e-1 1.415933828660418e-1 1.433744083708969e-1 1.451778364187572e-1
      1.470039487989249e-1 1.488530308451740e-1 1.507253714803364e-1 1.526212632614461e-1
      1.545410024254505e-1 1.564848889355003e-1 1.584532265278169e-1 1.604463227591541e-1
      1.624644890548532e-1 1.645080407575035e-1 1.665772971762167e-1 1.686725816365175e-1
      1.707942215308660e-1 1.729425483698125e-1 1.751178978337959e-1 1.773206098255963e-1
      1.795510285234431e-1 1.818095024347962e-1 1.840963844507993e-1 1.864120319014195e-1
      1.887568066112829e-1 1.911310749562077e-1 1.935352079204536e-1 1.959695811546879e-1
      1.984345750346804e-1 2.009305747207407e-1 2.034579702178972e-1 2.060171564368387e-1
      2.086085332556189e-1 2.112325055821374e-1 2.138894834174094e-1 2.165798819196264e-1
      2.193041214690286e-1 2.220626277335884e-1 2.248558317355211e-1 2.276841699186356e-1
      2.305480842165266e-1 2.334480221216301e-1 2.363844367551442e-1 2.393577869378288e-1
      2.423685372617000e-1 2.454171581626206e-1 2.485041259938091e-1 2.516299231002702e-1
      2.547950378941604e-1 2.579999649311064e-1 2.612452049874776e-1 2.645312651386354e-1
      2.678586588381648e-1 2.712279059980997e-1 2.746395330701649e-1 2.780940731280302e-1
      2.815920659506085e-1 2.851340581063956e-1 2.887206030388712e-1 2.923522611529787e-1
      2.960295999026861e-1 2.997531938796552e-1 3.035236249030211e-1 3.073414821103013e-1
      3.112073620494527e-1 3.151218687720803e-1 3.190856139278238e-1 3.230992168599288e-1
      3.271633047020182e-1 3.312785124760866e-1 3.354454831917202e-1 3.396648679465717e-1
      3.439373260280940e-1 3.482635250165536e-1 3.526441408893452e-1 3.570798581266102e-1
      3.615713698181921e-1 3.661193777719314e-1 3.707245926233226e-1 3.753877339465568e-1
      3.801095303669519e-1 3.848907196748057e-1 3.897320489406755e-1 3.946342746321077e-1
      3.995981627318415e-1 4.046244888574901e-1 4.097140383827378e-1 4.148676065600530e-1
      4.200859986449474e-1 4.253700300218023e-1 4.307205263312694e-1 4.361383235992835e-1
      4.416242683676911e-1 4.471792178265218e-1 4.528040399479321e-1 4.584996136218203e-1
      4.642668287931624e-1 4.701065866010609e-1 4.760197995195550e-1 4.820073915001947e-1
      4.880702981164072e-1 4.942094667096879e-1 5.004258565376181e-1 5.067204389237566e-1
      5.130941974094086e-1 5.195481279073032e-1 5.260832388572131e-1 5.327005513835181e-1
      5.394010994547646e-1 5.461859300452217e-1 5.530561032984716e-1 5.600126926930641e-1
      5.670567852102435e-1 5.741894815037981e-1 5.814118960720362e-1 5.887251574319262e-1
      5.961304082954367e-1 6.036288057480790e-1 6.112215214297119e-1 6.189097417176088e-1
      6.266946679118299e-1 6.345775164229335e-1 6.425595189620350e-1 6.506419227332718e-1
      6.588259906286781e-1 6.671130014255110e-1 6.755042499860696e-1 6.840010474600114e-1
      6.926047214892299e-1 7.013166164152976e-1 7.101380934895185e-1 7.190705310856357e-1
      7.281153249151941e-1 7.372738882456326e-1 7.465476521211061e-1 7.559380655860853e-1
      7.654465959117815e-1 7.750747288254009e-1 7.848239687423010e-1 7.946958390010552e-1
      8.046918821014732e-1 8.148136599456294e-1 8.250627540819018e-1 8.354407659521026e-1
      8.459493171417025e-1 8.565900496332016e-1 8.673646260627034e-1 8.782747299796929e-1
      8.893220661101056e-1 9.005083606226895e-1 9.118353613987173e-1 9.233048383051090e-1
      9.349185834709623e-1 9.466784115675896e-1 9.585861600920584e-1 9.706436896542986e-1
      9.828528842678386e-1 9.952156516441736e-1 1.007733923490860e0 1.020409655813344e0
      1.033244829220587e0 1.046241449234550e0 1.059401546603550e0 1.072727177619575e0
      1.086220424439585e0 1.099883395410845e0 1.113718225400370e0 1.127727076128489e0
      1.141912136506631e0 1.156275622979344e0 1.170819779870605e0 1.185546879734525e0
      1.200459223710415e0 1.215559141882363e0 1.230848993643307e0 1.246331168063687e0
      1.262008084264760e0 1.277882191796572e0 1.293955971020724e0 1.310231933497924e0
      1.326712622380418e0 1.343400612809380e0 1.360298512317260e0 1.377408961235239e0
      1.394734633105774e0 1.412278235100338e0 1.430042508442442e0 1.448030228835931e0
      1.466244206898717e0 1.484687288601930e0 1.503362355714604e0 1.522272326253975e0
      1.541420154941409e0 1.560808833664095e0 1.580441391942535e0 1.600320897403896e0
      1.620450456261357e0 1.640833213799438e0 1.661472354865476e0 1.682371104367257e0
      1.703532727776903e0 1.724960531641131e0 1.746657864097885e0 1.768628115399507e0
      1.790874718442465e0 1.813401149303740e0 1.836210927783990e0 1.859307617957502e0
      1.882694828729112e0 1.906376214398086e0 1.930355475229109e0 1.954636358030479e0
      1.979222656739525e0 2.004118213015448e0 2.029326916839568e0 2.054852707123138e0
      2.080699572322830e0 2.106871551063910e0 2.133372732771306e0 2.160207258308583e0
      2.187379320624943e0 2.214893165410412e0 2.242753091759207e0 2.270963452841507e0
      2.299528656583628e0 2.328453166356764e0 2.357741501674421e0 2.387398238898574e0
      2.417428011954754e0 2.447835513056101e0 2.478625493436520e0 2.509802764093095e0
      2.541372196537788e0 2.573338723558652e0 2.605707339990575e0 2.638483103495720e0
      2.671671135353827e0 2.705276621262385e0 2.739304812146942e0 2.773761024981563e0
      2.808650643619591e0 2.843979119634935e0 2.879751973173837e0 2.915974793817449e0
      2.952653241455195e0 2.989793047169135e0 3.027400014129480e0 3.065480018501322e0
      3.104039010362821e0 3.143083014634912e0 3.182618132022686e0 3.222650539968681e0
      3.263186493618074e0 3.304232326796099e0 3.345794452997705e0 3.387879366389658e0
      3.430493642825308e0 3.473643940872039e0 3.517337002851713e0 3.561579655894167e0
      3.606378813003939e0 3.651741474140484e0 3.697674727311882e0 3.744185749682400e0
      3.791281808693918e0 3.838970263201460e0 3.887258564623080e0 3.936154258104105e0
      3.985664983696126e0 4.035798477550755e0 4.086562573128391e0 4.137965202422261e0
      4.190014397197758e0 4.242718290247467e0 4.296085116661912e0 4.350123215116282e0
      4.404841029173415e0 4.460247108603068e0 4.516350110717883e0 4.573158801726092e0
      4.630682058101225e0 4.688928867969142e0 4.747908332512369e0 4.807629667392247e0
      4.868102204188862e0 4.929335391859104e0 4.991338798213143e0 5.054122111409351e0
      5.117695141468158e0 5.182067821804861e0 5.247250210781711e0 5.313252493279617e0
      5.380084982289486e0 5.447758120523705e0 5.516282482047816e0 5.585668773932702e0
      5.655927837927655e0 5.727070652154349e0 5.799108332822256e0 5.872052135965557e0
      5.945913459201874e0 6.020703843513257e0 6.096434975049394e0 6.173118686953678e0
      6.250766961212116e0 6.329391930525516e0 6.409005880205322e0 6.489621250093120e0
      6.571250636504482e0 6.653906794197124e0 6.737602638363826e0 6.822351246650543e0
      6.908165861199718e0 6.995059890719479e0 7.083046912578737e0 7.172140674928642e0
      7.262355098850853e0 7.353704280532622e0 7.446202493469452e0 7.539864190695317e0
      7.634704007040937e0 7.730736761420596e0 7.827977459147521e0 7.926441294278581e0
      8.026143651988354e0 8.127100110973055e0 8.229326445884823e0 8.332838629796440e0
      8.437652836697255e0 8.543785444020356e0 8.651253035201538e0 8.760072402270596e0
      8.870260548474999e0 8.981834690936786e0 9.094812263342734e0 9.209210918668349e0
      9.325048531936311e0 9.442343203009329e0 9.561113259418413e0 9.681377259226535e0
      9.803153993928309e0 9.926462491386323e0 1.005132201880415e1 1.017775208573698e1
      1.030577244714002e1 1.043540310645517e1 1.056666431873671e1 1.069957659381608e1
      1.083416069950670e1 1.097043766484890e1 1.110842878339574e1 1.124815561654029e1
      1.138963999688444e1 1.153290403165052e1 1.167797010613543e1 1.182486088720843e1
      1.197359932685294e1 1.212420866575272e1 1.227671243692342e1 1.243113446938958e1
      1.258749889190789e1 1.274583013673756e1 1.290615294345766e1 1.306849236283295e1
      1.323287376072801e1 1.339932282207065e1 1.356786555486540e1 1.373852829425710e1
      1.391133770664604e1 1.408632079385450e1 1.426350489734582e1 1.444291770249670e1
      1.462458724292292e1 1.480854190485979e1 1.499481043159754e1 1.518342192797238e1
      1.537440586491440e1 1.556779208405226e1 1.576361080237617e1 1.596189261695930e1
      1.616266850973852e1 1.636596985235562e1 1.657182841105895e1 1.678027635166714e1
      1.699134624459506e1 1.720507106994283e1 1.742148422264929e1 1.764061951770980e1
      1.786251119546007e1 1.808719392692622e1 1.831470281924211e1 1.854507342113508e1
      1.877834172848033e1 1.901454418992548e1 1.925371771258573e1 1.949589966781052e1
      1.974112789702317e1 1.998944071763333e1 2.024087692902444e1 2.049547581861615e1
      2.075327716800284e1 2.101432125916994e1 2.127864888078772e1 2.154630133458486e1
      2.181732044180186e1 2.209174854972555e1 2.236962853830617e1 2.265100382685723e1
      2.293591838084006e1 2.322441671873343e1 2.351654391898950e1 2.381234562707774e1
      2.411186806261675e1 2.441515802659653e1 2.472226290869103e1 2.503323069466281e1
      2.534810997386117e1 2.566694994681404e1 2.598980043291591e1 2.631671187821213e1
      2.664773536328104e1 2.698292261121574e1 2.732232599570559e1 2.766599854921997e1
      2.801399397129462e1 2.836636663692215e1 2.872317160504858e1 2.908446462717599e1
      2.945030215607419e1 2.982074135460144e1 3.019584010463607e1 3.057565701612101e1
      3.096025143622132e1 3.134968345859766e1 3.174401393279590e1 3.214330447375477e1
      3.254761747143379e1 3.295701610056130e1 3.337156433050609e1 3.379132693527256e1
      3.421636950362160e1 3.464675844931937e1 3.508256102151418e1 3.552384531524462e1
      3.597068028207945e1 3.642313574089121e1 3.688128238876601e1 3.734519181204952e1
      3.781493649753306e1 3.829058984377949e1 3.877222617259175e1 3.925992074062624e1
      3.975374975115134e1 4.025379036595466e1 4.076012071739973e1 4.127281992063391e1
      4.179196808595098e1 4.231764633130783e1 4.284993679499986e1 4.338892264849505e1
      4.393468810942945e1 4.448731845476685e1 4.504690003412286e1 4.561352028325785e1
      4.618726773773860e1 4.676823204677201e1 4.735650398721353e1 4.795217547775052e1
      4.855533959326537e1 4.916609057937836e1 4.978452386717347e1 5.041073608811033e1
      5.104482508912230e1 5.168688994790593e1 5.233703098840183e1 5.299534979647008e1
      5.366194923576400e1 5.433693346380201e1 5.502040794824308e1 5.571247948336605e1
      5.641325620675611e1 5.712284761620225e1 5.784136458680564e1 5.856891938830490e1
      5.930562570261808e1 6.005159864160542e1 6.080695476505654e1 6.157181209890231e1
      6.234629015365735e1 6.313050994309354e1 6.392459400314823e1 6.472866641107162e1
      6.554285280481313e1 6.636728040265336e1 6.720207802308190e1 6.804737610492511e1
      6.890330672772831e1 6.977000363239246e1 7.064760224207234e1 7.153623968333632e1
      7.243605480759233e1 7.334718821278445e1 7.426978226536069e1 7.520398112251894e1
      7.614993075473141e1 7.710777896855240e1 7.807767542971438e1 7.905977168651237e1
      8.005422119348472e1 8.106117933539027e1 8.208080345148710e1 8.311325286011806e1
      8.415868888360349e1 8.521727487344915e1 8.628917623586984e1 8.737456045763393e1
      8.847359713223460e1 8.958645798638797e1 9.071331690686675e1 9.185434996767007e1
      9.300973545753484e1 9.417965390779475e1 9.536428812058759e1 9.656382319741944e1
      9.777844656808668e1 9.900834801996178e1 1.002537197276492e2
      </PP_R>
    <PP_RAB>
      3.930525713597053e-7 3.979965640814751e-7 4.030027445761131e-7 4.080718950695061e-7
      4.132048076267326e-7 4.184022842758228e-7 4.236651371330772e-7 4.289941885299617e-7
      4.343902711415993e-7 4.398542281168770e-7 4.453869132101883e-7 4.509891909148356e-7
      4.566619365981079e-7 4.624060366380592e-7 4.682223885620078e-7 4.741119011867751e-7
      4.800754947606912e-7 4.861141011073847e-7 4.922286637713825e-7 4.984201381655422e-7
      5.046894917203337e-7 5.110377040350055e-7 5.174657670306471e-7 5.239746851051788e-7
      5.305654752902935e-7 5.372391674103661e-7 5.439968042433683e-7 5.508394416838037e-7
      5.577681489076932e-7 5.647840085396378e-7 5.718881168219792e-7 5.790815837860892e-7