
     Program PWSCF v.7.2 starts on 30Dec2023 at 13:26:12 

     This program is part of the open-source Quantum ESPRESSO suite
     for quantum simulation of materials; please cite
         "P. Giannozzi et al., J. Phys.:Condens. Matter 21 395502 (2009);
         "P. Giannozzi et al., J. Phys.:Condens. Matter 29 465901 (2017);
         "P. Giannozzi et al., J. Chem. Phys. 152 154105 (2020);
          URL http://www.quantum-espresso.org", 
     in publications or presentations arising from this work. More details at
     http://www.quantum-espresso.org/quote

     Parallel version (MPI & OpenMP), running on       4 processor cores
     Number of MPI processes:                 4
     Threads/MPI process:                     1

     MPI processes distributed on     1 nodes
     503992 MiB available memory on the printing compute node when the environment starts
 
     Reading input from input_0001.inp

     Current dimensions of program PWSCF are:
     Max number of different atomic species (ntypx) = 10
     Max number of k-points (npk) =  40000
     Max angular momentum in pseudopotentials (lmaxx) =  4
     file O.pbe-n-kjpaw_psl.0.1.UPF: wavefunction(s)  2P renormalized

     gamma-point specific algorithms are used
 
     R & G space division:  proc/nbgrp/npool/nimage =       4
     Subspace diagonalization in iterative solution of the eigenvalue problem:
     a serial algorithm will be used

 
     Parallelization info
     --------------------
     sticks:   dense  smooth     PW     G-vecs:    dense   smooth      PW
     Min        6485    4324   1079              2728975  1485363  185656
     Max        6486    4326   1080              2728990  1485382  185664
     Sum       25943   17301   4319             10915929  5941483  742635
 
     Using Slab Decomposition
 


     bravais-lattice index     =            0
     lattice parameter (alat)  =      32.3352  a.u.
     unit-cell volume          =   51510.8153 (a.u.)^3
     number of atoms/cell      =          300
     number of atomic types    =            4
     number of electrons       =      1392.00
     number of Kohn-Sham states=          835
     kinetic-energy cutoff     =      90.0000  Ry
     charge density cutoff     =     540.0000  Ry
     scf convergence threshold =      1.0E-07
     mixing beta               =       0.2000
     number of iterations used =            8  plain     mixing
     Exchange-correlation= SLA  PW   PBX  PBC
                           (   1   4   3   4   0   0   0)

     GPU acceleration is ACTIVE.
     GPU-aware MPI enabled


     GPU used by master process:

        Device Number: 0
        Device name: NVIDIA PG506-243
        Compute capability : 80
        Ratio of single to double precision performance  : 2
        Memory Clock Rate (KHz): 1593000
        Memory Bus Width (bits): 4096
        Peak Memory Bandwidth (GB/s): ******

     celldm(1)=  32.335181  celldm(2)=   0.000000  celldm(3)=   0.000000
     celldm(4)=   0.000000  celldm(5)=   0.000000  celldm(6)=   0.000000

     crystal axes: (cart. coord. in units of alat)
               a(1) = (   1.000000   0.000000   0.000000 )  
               a(2) = (  -0.333333   0.577350   0.000000 )  
               a(3) = (   0.000000  -0.000000   2.638962 )  

     reciprocal axes: (cart. coord. in units 2 pi/alat)
               b(1) = (  1.000000  0.577350  0.000000 )  
               b(2) = ( -0.000000  1.732051  0.000000 )  
               b(3) = (  0.000000 -0.000000  0.378937 )  


     PseudoPot. # 1 for N  read from file:
     /leonardo_scratch/large/userexternal/uraucci0/Li_Cr/PPS/N.pbe-n-radius_5.UPF
     MD5 check sum: 16739722b17309cd8fe442a2ace49922
     Pseudo is Ultrasoft + core correction, Zval =  5.0
     Generated using "atomic" code by A. Dal Corso  v.5.1
     Using radial grid of 1085 points,  4 beta functions with: 
                l(1) =   0
                l(2) =   0
                l(3) =   1
                l(4) =   1
     Q(r) pseudized with 0 coefficients 


     PseudoPot. # 2 for Li read from file:
     /leonardo_scratch/large/userexternal/uraucci0/Li_Cr/PPS/li_pbe_v1.4.uspp.F.UPF
     MD5 check sum: e912e257baa3777c20ea3d68f190483c
     Pseudo is Ultrasoft, Zval =  3.0
     Generated by new atomic code, or converted to UPF format
     Using radial grid of  751 points,  5 beta functions with: 
                l(1) =   0
                l(2) =   0
                l(3) =   0
                l(4) =   1
                l(5) =   1
     Q(r) pseudized with 10 coefficients,  rinner =    1.150   1.150   1.150


     PseudoPot. # 3 for Cr read from file:
     /leonardo_scratch/large/userexternal/uraucci0/Li_Cr/PPS/cr_pbe_v1.5.uspp.F.UPF
     MD5 check sum: 0d52af634a40206e4dee301ad30da4bf
     Pseudo is Ultrasoft + core correction, Zval = 14.0
     Generated by new atomic code, or converted to UPF format
     Using radial grid of  857 points,  6 beta functions with: 
                l(1) =   0
                l(2) =   0
                l(3) =   1
                l(4) =   1
                l(5) =   2
                l(6) =   2
     Q(r) pseudized with  8 coefficients,  rinner =    0.950   0.950   0.950
                                                       0.950   0.950

     PseudoPot. # 4 for O  read from file:
     /leonardo_scratch/large/userexternal/uraucci0/Li_Cr/PPS/O.pbe-n-kjpaw_psl.0.1.UPF
     MD5 check sum: 0234752ac141de4415c5fc33072bef88
     Pseudo is Projector augmented-wave + core cor, Zval =  6.0
     Generated using "atomic" code by A. Dal Corso  v.5.0.99 svn rev. 10869
     Shape of augmentation charge: BESSEL
     Using radial grid of 1095 points,  4 beta functions with: 
                l(1) =   0
                l(2) =   0
                l(3) =   1
                l(4) =   1
     Q(r) pseudized with 0 coefficients 


     atomic species   valence    mass     pseudopotential
        N              5.00    14.00674     N ( 1.00)
        Li             3.00     6.94100     Li( 1.00)
        Cr            14.00    51.99610     Cr( 1.00)
        O              6.00    15.99940     O ( 1.00)

     No symmetry found


                                    s                        frac. trans.

      isym =  1     identity                                     

 cryst.   s( 1) = (     1          0          0      )
                  (     0          1          0      )
                  (     0          0          1      )

 cart.    s( 1) = (  1.0000000  0.0000000  0.0000000 )
                  (  0.0000000  1.0000000  0.0000000 )
                  (  0.0000000  0.0000000  1.0000000 )


   Cartesian axes

     site n.     atom                  positions (alat units)
         1           Li  tau(   1) = (   0.2593273   0.0873080   0.8766270  )
         2           Li  tau(   2) = (   0.1280588   0.1809300   0.8766270  )
         3           Li  tau(   3) = (   0.1126144   0.0204373   0.8766270  )
         4           Li  tau(   4) = (  -0.0842444   0.2033079   1.2800507  )
         5           Li  tau(   5) = (   0.0345620   0.1094977   1.3005813  )
         6           Li  tau(   6) = (   0.0539706   0.2719770   1.2810208  )
         7           Li  tau(   7) = (   0.0669942   0.0904568   1.0336250  )
         8           Li  tau(   8) = (   0.2214985   0.0127904   1.0336250  )
         9           Li  tau(   9) = (   0.2115073   0.1854282   1.0336250  )
        10           Li  tau(  10) = (   0.0862361   0.2216160   1.1286338  )
        11           Li  tau(  11) = (  -0.0617601   0.2822850   1.1220708  )
        12           Li  tau(  12) = (  -0.0465436   0.1137038   1.1261150  )
        13           Li  tau(  13) = (   0.0000000   0.0000000   0.9626942  )
        14           Li  tau(  14) = (  -0.0023688   0.0232564   1.1891971  )
        15           Cr  tau(  15) = (   0.1658461   0.1011026   1.2078283  )
        16           Cr  tau(  16) = (  -0.0000000   0.1924500   0.9478909  )
        17           N   tau(  17) = (   0.2611092   0.0809945   1.2375869  )
        18           N   tau(  18) = (   0.1647159   0.0944478   1.1126968  )
        19           N   tau(  19) = (  -0.0969339   0.1982778   0.9168466  )
        20           N   tau(  20) = (   0.0434200   0.1055885   0.9168466  )
        21           N   tau(  21) = (   0.0535141   0.2734837   0.9168466  )
        22           N   tau(  22) = (   0.1087859   0.0240029   1.2420343  )
        23           N   tau(  23) = (   0.1404894   0.1984432   1.2463122  )
        24           N   tau(  24) = (  -0.0000000   0.1924500   1.0497374  )
        25           O   tau(  25) = (  -0.3349066   0.5781653   1.0677550  )
        26           Li  tau(  26) = (   0.2852836   0.0829459   1.3668835  )
        27           Li  tau(  27) = (   0.1349807   0.1775836   1.3784959  )
        28           Li  tau(  28) = (   0.0996590   0.0133350   1.3624302  )
        29           Li  tau(  29) = (  -0.0758954   0.2160482   1.7758826  )
        30           Li  tau(  30) = (   0.0531665   0.0827401   1.7703482  )
        31           Li  tau(  31) = (   0.0669772   0.2856115   1.7847248  )
        32           Li  tau(  32) = (   0.0654425   0.1027085   1.5220231  )
        33           Li  tau(  33) = (   0.2167232   0.0070540   1.5221926  )
        34           Li  tau(  34) = (   0.2095495   0.1933126   1.5264238  )
        35           Li  tau(  35) = (   0.0963828   0.2024582   1.6104105  )
        36           Li  tau(  36) = (  -0.0473346   0.2894815   1.6122280  )
        37           Li  tau(  37) = (  -0.0239138   0.1149842   1.6219878  )
        38           Li  tau(  38) = (   0.0077378  -0.0071069   1.4455754  )
        39           Li  tau(  39) = (   0.0011268  -0.0043060   1.6876589  )
        40           Cr  tau(  40) = (   0.1821315   0.1091623   1.6930472  )
        41           Cr  tau(  41) = (   0.0009083   0.1985274   1.4406429  )
        42           N   tau(  42) = (   0.2828209   0.1136325   1.7243194  )
        43           N   tau(  43) = (   0.1683942   0.0997958   1.5898331  )
        44           N   tau(  44) = (  -0.1032813   0.1980540   1.4118486  )
        45           N   tau(  45) = (   0.0471025   0.1135407   1.4153551  )
        46           N   tau(  46) = (   0.0572311   0.2732680   1.4110597  )
        47           N   tau(  47) = (   0.1317845   0.0290290   1.7313090  )
        48           N   tau(  48) = (   0.1349824   0.1899417   1.7440201  )
        49           N   tau(  49) = (   0.0047351   0.2081896   1.5424485  )
        50           O   tau(  50) = (   0.0102126   0.0072326   1.5771279  )
        51           Li  tau(  51) = (   0.0926606   0.3759836   0.8766270  )
        52           Li  tau(  52) = (  -0.0386079   0.4696050   0.8766270  )
        53           Li  tau(  53) = (  -0.0540524   0.3091127   0.8766270  )
        54           Li  tau(  54) = (  -0.2789059   0.4913804   1.2695195  )
        55           Li  tau(  55) = (  -0.1385415   0.4167467   1.2848838  )
        56           Li  tau(  56) = (  -0.1228347   0.5551684   1.2747091  )
        57           Li  tau(  57) = (  -0.0996725   0.3791318   1.0336250  )
        58           Li  tau(  58) = (   0.0548319   0.3014656   1.0336250  )
        59           Li  tau(  59) = (   0.0448406   0.4741032   1.0336250  )
        60           Li  tau(  60) = (  -0.0785873   0.4952229   1.1045032  )
        61           Li  tau(  61) = (  -0.2198206   0.5674699   1.1066422  )
        62           Li  tau(  62) = (  -0.2066175   0.3961185   1.1250221  )
        63           Li  tau(  63) = (  -0.1666667   0.2886750   0.9626942  )
        64           Li  tau(  64) = (   0.8374943   0.2907573   1.1945211  )
        65           Cr  tau(  65) = (  -0.0005853   0.3862746   1.2042108  )
        66           Cr  tau(  66) = (  -0.1666667   0.4811250   0.9478909  )
        67           N   tau(  67) = (   0.0920733   0.3784036   1.2408655  )
        68           N   tau(  68) = (  -0.0071091   0.3886198   1.1032000  )
        69           N   tau(  69) = (  -0.2636006   0.4869528   0.9168466  )
        70           N   tau(  70) = (  -0.1232467   0.3942641   0.9168466  )
        71           N   tau(  71) = (  -0.1131527   0.5621587   0.9168466  )
        72           N   tau(  72) = (  -0.0506405   0.3079456   1.2328882  )
        73           N   tau(  73) = (  -0.0462843   0.4692082   1.2415200  )
        74           N   tau(  74) = (  -0.1666667   0.4811250   1.0497374  )
        75           O   tau(  75) = (  -0.1693988   0.2900426   1.0803258  )
        76           Li  tau(  76) = (   0.0827086   0.3724718   1.3618458  )
        77           Li  tau(  77) = (  -0.0400294   0.4750500   1.3554231  )
        78           Li  tau(  78) = (  -0.0768317   0.3079053   1.3724530  )
        79           Li  tau(  79) = (  -0.2675454   0.5204482   1.7735624  )
        80           Li  tau(  80) = (  -0.1157983   0.4052518   1.7911943  )
        81           Li  tau(  81) = (   0.2375203   0.0003636   1.7764553  )
        82           Li  tau(  82) = (  -0.1162998   0.3746616   1.5372121  )
        83           Li  tau(  83) = (   0.0635724   0.3167727   1.5225491  )
        84           Li  tau(  84) = (  -0.0078479   0.4361944   1.4772392  )
        85           Li  tau(  85) = (  -0.0852818   0.5100806   1.6320106  )
        86           Li  tau(  86) = (  -0.2157969   0.5836600   1.6235424  )
        87           Li  tau(  87) = (  -0.2291427   0.3831824   1.6157404  )
        88           Li  tau(  88) = (   0.8267352   0.2945566   1.4637274  )
        89           Li  tau(  89) = (   0.8300079   0.2885798   1.6929303  )
        90           Cr  tau(  90) = (   0.0020263   0.3973008   1.7134317  )
        91           Cr  tau(  91) = (  -0.1581990   0.4791947   1.4478605  )
        92           N   tau(  92) = (   0.0969731   0.3854710   1.7535461  )
        93           N   tau(  93) = (   0.0039483   0.3926915   1.6084761  )
        94           N   tau(  94) = (  -0.2588206   0.4824978   1.4086226  )
        95           N   tau(  95) = (  -0.1135542   0.3918254   1.4170675  )
        96           N   tau(  96) = (  -0.1055885   0.5511295   1.4027668  )
        97           N   tau(  97) = (  -0.0534992   0.3237529   1.7624994  )
        98           N   tau(  98) = (  -0.0383249   0.4842750   1.7389298  )
        99           N   tau(  99) = (  -0.1685859   0.4798872   1.5496719  )
       100           O   tau( 100) = (  -0.1660612   0.2893266   1.5786649  )
       101           Li  tau( 101) = (   0.5926583   0.0873080   0.8766270  )
       102           Li  tau( 102) = (   0.4613921   0.1809300   0.8766270  )
       103           Li  tau( 103) = (   0.4459477   0.0204373   0.8766270  )
       104           Li  tau( 104) = (   0.2394699   0.2027048   1.3009904  )
       105           Li  tau( 105) = (   0.3669058   0.1022007   1.2817689  )
       106           Li  tau( 106) = (   0.3841485   0.2832469   1.2824176  )
       107           Li  tau( 107) = (   0.4003275   0.0904568   1.0336250  )
       108           Li  tau( 108) = (   0.5548318   0.0127904   1.0336250  )
       109           Li  tau( 109) = (   0.5448406   0.1854282   1.0336250  )
       110           Li  tau( 110) = (   0.4224512   0.2166712   1.1312345  )
       111           Li  tau( 111) = (   0.2771924   0.2671433   1.1230000  )
       112           Li  tau( 112) = (   0.2935976   0.1126372   1.1365293  )
       113           Li  tau( 113) = (   0.3333333   0.0000000   0.9626942  )
       114           Li  tau( 114) = (  -0.0136982   0.5735162   1.1885308  )
       115           Cr  tau( 115) = (   0.4973111   0.0981518   1.2018556  )
       116           Cr  tau( 116) = (   0.3333333   0.1924500   0.9478909  )
       117           N   tau( 117) = (   0.5974622   0.0998256   1.2392349  )
       118           N   tau( 118) = (   0.5048226   0.1023807   1.1042519  )
       119           N   tau( 119) = (   0.2363994   0.1982778   0.9168466  )
       120           N   tau( 120) = (   0.3767532   0.1055885   0.9168466  )
       121           N   tau( 121) = (   0.3868473   0.2734837   0.9168466  )
       122           N   tau( 122) = (   0.4378395   0.0201328   1.2434837  )
       123           N   tau( 123) = (   0.4529426   0.1904776   1.2272544  )
       124           N   tau( 124) = (   0.3333333   0.1924500   1.0497374  )
       125           O   tau( 125) = (  -0.0088079   0.5884095   1.0753408  )
       126           Li  tau( 126) = (   0.6225922   0.0742474   1.3653173  )
       127           Li  tau( 127) = (   0.4560880   0.1951284   1.3486321  )
       128           Li  tau( 128) = (   0.4333646   0.0206090   1.3723770  )
       129           Li  tau( 129) = (   0.2382614   0.2082614   1.7703189  )
       130           Li  tau( 130) = (   0.3861454   0.1015087   1.7760521  )
       131           Li  tau( 131) = (   0.4002392   0.2604020   1.7741469  )
       132           Li  tau( 132) = (   0.5088971   0.1032310   1.4399942  )
       133           Li  tau( 133) = (   0.4415214   0.0329031   1.5824987  )
       134           Li  tau( 134) = (   0.5604913   0.1891329   1.5381764  )
       135           Li  tau( 135) = (   0.4406745   0.1966041   1.6120878  )
       136           Li  tau( 136) = (   0.2800852   0.2691186   1.6351840  )
       137           Li  tau( 137) = (   0.3014317   0.0965757   1.5968871  )
       138           Li  tau( 138) = (   0.3416432   0.0093887   1.4716463  )
       139           Li  tau( 139) = (   0.3506765   0.0018136   1.7057524  )
       140           Cr  tau( 140) = (   0.5192104   0.0994796   1.7180427  )
       141           Cr  tau( 141) = (   0.3338675   0.2000428   1.4488131  )
       142           N   tau( 142) = (   0.6084609   0.0907782   1.7695767  )
       143           N   tau( 143) = (   0.5198170   0.1027898   1.6084001  )
       144           N   tau( 144) = (   0.2371656   0.1986840   1.4163311  )
       145           N   tau( 145) = (   0.3779355   0.1076971   1.4050109  )
       146           N   tau( 146) = (   0.3779565   0.2901881   1.4187214  )
       147           N   tau( 147) = (   0.4553504   0.0242774   1.7520091  )
       148           N   tau( 148) = (   0.4620812   0.1812987   1.7424071  )
       149           N   tau( 149) = (   0.3264512   0.1993461   1.5482518  )
       150           O   tau( 150) = (  -0.0095948   0.5729827   1.5833695  )
       151           Li  tau( 151) = (   0.4259940   0.3759836   0.8766270  )
       152           Li  tau( 152) = (   0.2947255   0.4696050   0.8766270  )
       153           Li  tau( 153) = (   0.2792811   0.3091127   0.8766270  )
       154           Li  tau( 154) = (   0.0647868   0.4948179   1.2884429  )
       155           Li  tau( 155) = (   0.2019626   0.4323174   1.2690753  )
       156           Li  tau( 156) = (   0.5578959  -0.0060346   1.2996521  )
       157           Li  tau( 157) = (   0.2336608   0.3791318   1.0336250  )
       158           Li  tau( 158) = (   0.3881652   0.3014656   1.0336250  )
       159           Li  tau( 159) = (   0.3781739   0.4741032   1.0336250  )
       160           Li  tau( 160) = (   0.2706673   0.4859856   1.1010902  )
       161           Li  tau( 161) = (   0.1224198   0.5552117   1.1332449  )
       162           Li  tau( 162) = (   0.1171536   0.3924600   1.1105636  )
       163           Li  tau( 163) = (   0.1666667   0.2886750   0.9626942  )
       164           Li  tau( 164) = (   0.1772703   0.2966938   1.2209953  )
       165           Cr  tau( 165) = (   0.3271671   0.3918826   1.2093712  )
       166           Cr  tau( 166) = (   0.1666667   0.4811250   0.9478909  )
       167           N   tau( 167) = (   0.4234552   0.3962921   1.2392466  )
       168           N   tau( 168) = (   0.3265535   0.3803795   1.1063383  )
       169           N   tau( 169) = (   0.0697328   0.4869528   0.9168466  )
       170           N   tau( 170) = (   0.2100866   0.3942641   0.9168466  )
       171           N   tau( 171) = (   0.2201806   0.5621587   0.9168466  )
       172           N   tau( 172) = (   0.2784576   0.3145221   1.2507947  )
       173           N   tau( 173) = (   0.2925614   0.4894688   1.2330869  )
       174           N   tau( 174) = (   0.1666667   0.4811250   1.0497374  )
       175           O   tau( 175) = (   0.1542507   0.2905621   1.0812434  )
       176           Li  tau( 176) = (   0.4330204   0.3707261   1.3670296  )
       177           Li  tau( 177) = (   0.3047617   0.4896569   1.3905700  )
       178           Li  tau( 178) = (   0.2919302   0.3502990   1.3855440  )
       179           Li  tau( 179) = (   0.1120148   0.4984676   1.7803826  )
       180           Li  tau( 180) = (   0.1934529   0.3770419   1.7914573  )
       181           Li  tau( 181) = (   0.2365110   0.5520693   1.7825216  )
       182           Li  tau( 182) = (   0.2410449   0.3811299   1.5381823  )
       183           Li  tau( 183) = (   0.3911591   0.2969977   1.5659187  )
       184           Li  tau( 184) = (   0.3707816   0.4861832   1.5305147  )
       185           Li  tau( 185) = (   0.2655478   0.4953983   1.6327294  )
       186           Li  tau( 186) = (   0.0512582   0.4888306   1.5858591  )
       187           Li  tau( 187) = (   0.1292172   0.3901662   1.6056709  )
       188           Li  tau( 188) = (   0.1779886   0.2975067   1.4464053  )
       189           Li  tau( 189) = (   0.1664387   0.2920120   1.7035492  )
       190           Cr  tau( 190) = (   0.3390150   0.3858047   1.7219116  )
       191           Cr  tau( 191) = (   0.1707120   0.4966103   1.4529683  )
       192           N   tau( 192) = (   0.4426738   0.3833735   1.7418753  )
       193           N   tau( 193) = (   0.3385679   0.3919732   1.6152612  )
       194           N   tau( 194) = (   0.0649288   0.4932961   1.4136136  )
       195           N   tau( 195) = (   0.2147473   0.4123875   1.4278032  )
       196           N   tau( 196) = (   0.2179604   0.5752917   1.4058525  )
       197           N   tau( 197) = (   0.2736929   0.3097690   1.7643403  )
       198           N   tau( 198) = (   0.2932674   0.4674415   1.7563104  )
       199           N   tau( 199) = (   0.1745107   0.4976483   1.5590694  )
       200           O   tau( 200) = (   0.1723431   0.2950954   1.5755616  )
       201           Li  tau( 201) = (   0.9259927   0.0873080   0.8766270  )
       202           Li  tau( 202) = (   0.7947266   0.1809300   0.8766270  )
       203           Li  tau( 203) = (   0.7792805   0.0204373   0.8766270  )
       204           Li  tau( 204) = (   0.5867790   0.2039671   1.2771111  )
       205           Li  tau( 205) = (   0.7118562   0.1076702   1.2692740  )
       206           Li  tau( 206) = (   0.7293361   0.2781344   1.2780987  )
       207           Li  tau( 207) = (   0.7336608   0.0904568   1.0336250  )
       208           Li  tau( 208) = (   0.8881634   0.0127904   1.0336250  )
       209           Li  tau( 209) = (   0.8781757   0.1854282   1.0336250  )
       210           Li  tau( 210) = (   0.7580135   0.1931572   1.1204403  )
       211           Li  tau( 211) = (   0.6200441   0.2797363   1.1164370  )
       212           Li  tau( 212) = (   0.6172447   0.1126021   1.1177286  )
       213           Li  tau( 213) = (   0.6666690   0.0000000   0.9626942  )
       214           Li  tau( 214) = (   0.6744300   0.0027781   1.1798347  )
       215           Cr  tau( 215) = (   0.8366586   0.0970023   1.2096342  )
       216           Cr  tau( 216) = (   0.6666690   0.1924500   0.9478909  )
       217           N   tau( 217) = (   0.9312934   0.0918945   1.2486674  )
       218           N   tau( 218) = (   0.8366411   0.0957282   1.1066597  )
       219           N   tau( 219) = (   0.5697327   0.1982778   0.9168466  )
       220           N   tau( 220) = (   0.7100854   0.1055885   0.9168466  )
       221           N   tau( 221) = (   0.7201783   0.2734837   0.9168466  )
       222           N   tau( 222) = (   0.7871467   0.0168487   1.2411518  )
       223           N   tau( 223) = (   0.7891221   0.1868554   1.2427239  )
       224           N   tau( 224) = (   0.6666690   0.1924500   1.0497374  )
       225           O   tau( 225) = (   0.3345214   0.5748627   1.0749024  )
       226           Li  tau( 226) = (   0.9084368   0.0930399   1.3983603  )
       227           Li  tau( 227) = (   0.7875266   0.1959220   1.3610160  )
       228           Li  tau( 228) = (   0.7742252   0.0160392   1.3792206  )
       229           Li  tau( 229) = (   0.5763635   0.2080733   1.7807975  )
       230           Li  tau( 230) = (   0.7120899   0.1158848   1.7892599  )
       231           Li  tau( 231) = (   0.7338653   0.2914446   1.7996509  )
       232           Li  tau( 232) = (   0.7233692   0.0616181   1.5332732  )
       233           Li  tau( 233) = (   0.8779127   0.0296118   1.5312920  )
       234           Li  tau( 234) = (   0.8779361   0.1936551   1.5278790  )
       235           Li  tau( 235) = (   0.7679953   0.1914320   1.6079910  )
       236           Li  tau( 236) = (   0.6465884   0.2776149   1.6308359  )
       237           Li  tau( 237) = (   0.6276240   0.1150345   1.6260144  )
       238           Li  tau( 238) = (   0.5831252   0.0099335   1.5213569  )
       239           Li  tau( 239) = (   0.3516665   0.5869134   1.7050628  )
       240           Cr  tau( 240) = (   0.8367930   0.1105368   1.7128414  )
       241           Cr  tau( 241) = (   0.6716891   0.1950063   1.4458150  )
       242           N   tau( 242) = (   0.9336428   0.1050187   1.7422376  )
       243           N   tau( 243) = (   0.8459216   0.1024023   1.6086514  )
       244           N   tau( 244) = (   0.5731796   0.1917177   1.4154019  )
       245           N   tau( 245) = (   0.7162802   0.1122994   1.3945615  )
       246           N   tau( 246) = (   0.7220017   0.2773706   1.4106915  )
       247           N   tau( 247) = (   0.7858727   0.0243820   1.7538091  )
       248           N   tau( 248) = (   0.8069994   0.1977191   1.7437513  )
       249           N   tau( 249) = (   0.6703625   0.2027837   1.5524245  )
       250           O   tau( 250) = (   0.3379748   0.5690752   1.5996221  )
       251           Li  tau( 251) = (   0.7593284   0.3759836   0.8766270  )
       252           Li  tau( 252) = (   0.6280565   0.4696050   0.8766270  )
       253           Li  tau( 253) = (   0.6126161   0.3091127   0.8766270  )
       254           Li  tau( 254) = (   0.3964434   0.5073876   1.2760474  )
       255           Li  tau( 255) = (   0.5352626   0.4023496   1.2704779  )
       256           Li  tau( 256) = (   0.5687053   0.5511547   1.2890215  )
       257           Li  tau( 257) = (   0.5669941   0.3791318   1.0336250  )
       258           Li  tau( 258) = (   0.7214991   0.3014656   1.0336250  )
       259           Li  tau( 259) = (   0.7115055   0.4741032   1.0336250  )
       260           Li  tau( 260) = (   0.6044577   0.4835276   1.1091493  )
       261           Li  tau( 261) = (   0.4477588   0.5427998   1.1119487  )
       262           Li  tau( 262) = (   0.4491229   0.3877642   1.1067123  )
       263           Li  tau( 263) = (   0.5000000   0.2886750   0.9626942  )
       264           Li  tau( 264) = (   0.5110104   0.2989210   1.1915289  )
       265           Cr  tau( 265) = (   0.6650969   0.3829896   1.2023523  )
       266           Cr  tau( 266) = (   0.5000000   0.4811250   0.9478909  )
       267           N   tau( 267) = (   0.7579200   0.3771179   1.2415609  )
       268           N   tau( 268) = (   0.6660729   0.3810405   1.1015811  )
       269           N   tau( 269) = (   0.4030661   0.4869528   0.9168466  )
       270           N   tau( 270) = (   0.5434199   0.3942641   0.9168466  )
       271           N   tau( 271) = (   0.5535140   0.5621587   0.9168466  )
       272           N   tau( 272) = (   0.6060999   0.3106930   1.2490765  )
       273           N   tau( 273) = (   0.6273785   0.4666998   1.2292706  )
       274           N   tau( 274) = (   0.5000000   0.4811250   1.0497374  )
       275           O   tau( 275) = (   0.5001572   0.2989590   1.0816174  )
       276           Li  tau( 276) = (   0.7347420   0.3817921   1.3841063  )
       277           Li  tau( 277) = (   0.6248539   0.4623763   1.3713543  )
       278           Li  tau( 278) = (   0.6091389   0.3217028   1.3505023  )
       279           Li  tau( 279) = (   0.4127890   0.4879820   1.7698280  )
       280           Li  tau( 280) = (   0.5566008   0.4036832   1.7860982  )
       281           Li  tau( 281) = (   0.5582986   0.5704580   1.7667890  )
       282           Li  tau( 282) = (   0.5615100   0.3769911   1.5399121  )
       283           Li  tau( 283) = (   0.7137088   0.3043246   1.5227536  )
       284           Li  tau( 284) = (   0.7002788   0.4746415   1.5262075  )
       285           Li  tau( 285) = (   0.6120726   0.4907638   1.6095631  )
       286           Li  tau( 286) = (   0.4593876   0.5508134   1.6443009  )
       287           Li  tau( 287) = (   0.4430064   0.4162342   1.6325424  )
       288           Li  tau( 288) = (   0.4915925   0.2886768   1.4708281  )
       289           Li  tau( 289) = (   0.5169750   0.3055746   1.6839887  )
       290           Cr  tau( 290) = (   0.6685449   0.4012620   1.7135603  )
       291           Cr  tau( 291) = (   0.5037163   0.4840348   1.4545988  )
       292           N   tau( 292) = (   0.7645414   0.3919691   1.7404143  )
       293           N   tau( 293) = (   0.6592235   0.3800277   1.6131631  )
       294           N   tau( 294) = (   0.4104718   0.4947735   1.4130818  )
       295           N   tau( 295) = (   0.5459755   0.3973265   1.4137071  )
       296           N   tau( 296) = (   0.5668124   0.5566529   1.4206558  )
       297           N   tau( 297) = (   0.6204766   0.3216169   1.7532013  )
       298           N   tau( 298) = (   0.6189162   0.4936579   1.7303038  )
       299           N   tau( 299) = (   0.5002489   0.4858232   1.5574096  )
       300           O   tau( 300) = (   0.5046356   0.2864162   1.5800850  )

   Crystallographic axes

     site n.     atom                  positions (cryst. coord.)
         1           Li  tau(   1) = (  0.3097346  0.1512218  0.3321863  )
         2           Li  tau(   2) = (  0.2325188  0.3133799  0.3321863  )
         3           Li  tau(   3) = (  0.1244139  0.0353984  0.3321863  )
         4           Li  tau(   4) = (  0.0331354  0.3521396  0.4850584  )
         5           Li  tau(   5) = (  0.0977805  0.1896556  0.4928382  )
         6           Li  tau(   6) = (  0.2109967  0.4710780  0.4854260  )
         7           Li  tau(   7) = (  0.1192194  0.1566758  0.3916786  )
         8           Li  tau(   8) = (  0.2288830  0.0221536  0.3916786  )
         9           Li  tau(   9) = (  0.3185643  0.3211711  0.3916786  )
        10           Li  tau(  10) = (  0.2141862  0.3838501  0.4276810  )
        11           Li  tau(  11) = (  0.1012172  0.4889319  0.4251940  )
        12           Li  tau(  12) = (  0.0191033  0.1969407  0.4267265  )
        13           Li  tau(  13) = (  0.0000000  0.0000000  0.3648003  )
        14           Li  tau(  14) = (  0.0110584  0.0402813  0.4506306  )
        15           Cr  tau(  15) = (  0.2242177  0.1751148  0.4576907  )
        16           Cr  tau(  16) = (  0.1111111  0.3333332  0.3591908  )
        17           N   tau(  17) = (  0.3078714  0.1402866  0.4689673  )
        18           N   tau(  18) = (  0.2192453  0.1635884  0.4216418  )
        19           N   tau(  19) = (  0.0175419  0.3434273  0.3474270  )
        20           N   tau(  20) = (  0.1043816  0.1828847  0.3474270  )
        21           N   tau(  21) = (  0.2114100  0.4736876  0.3474270  )
        22           N   tau(  22) = (  0.1226440  0.0415742  0.4706526  )
        23           N   tau(  23) = (  0.2550606  0.3437137  0.4722736  )
        24           N   tau(  24) = (  0.1111111  0.3333332  0.3977842  )
        25           O   tau(  25) = ( -0.0011027  1.0014117  0.4046117  )
        26           Li  tau(  26) = (  0.3331724  0.1436664  0.5179625  )
        27           Li  tau(  27) = (  0.2375086  0.3075838  0.5223629  )
        28           Li  tau(  28) = (  0.1073580  0.0230969  0.5162750  )
        29           Li  tau(  29) = (  0.0488401  0.3742065  0.6729474  )
        30           Li  tau(  30) = (  0.1009365  0.1433101  0.6708502  )
        31           Li  tau(  31) = (  0.2318751  0.4946936  0.6762980  )
        32           Li  tau(  32) = (  0.1247413  0.1778964  0.5767507  )
        33           Li  tau(  33) = (  0.2207959  0.0122180  0.5768149  )
        34           Li  tau(  34) = (  0.3211586  0.3348273  0.5784182  )
        35           Li  tau(  35) = (  0.2132721  0.3506678  0.6102439  )
        36           Li  tau(  36) = (  0.1197976  0.5013967  0.6109326  )
        37           Li  tau(  37) = (  0.0424724  0.1991585  0.6146310  )
        38           Li  tau(  38) = (  0.0036346 -0.0123095  0.5477818  )
        39           Li  tau(  39) = ( -0.0013592 -0.0074582  0.6395161  )
        40           Cr  tau(  40) = (  0.2451564  0.1890746  0.6415580  )
        41           Cr  tau(  41) = (  0.1155282  0.3438595  0.5459127  )
        42           N   tau(  42) = (  0.3484266  0.1968172  0.6534082  )
        43           N   tau(  43) = (  0.2260113  0.1728514  0.6024464  )
        44           N   tau(  44) = (  0.0110653  0.3430396  0.5350015  )
        45           N   tau(  45) = (  0.1126552  0.1966583  0.5363302  )
        46           N   tau(  46) = (  0.2150025  0.4733141  0.5347025  )
        47           N   tau(  47) = (  0.1485444  0.0502798  0.6560568  )
        48           N   tau(  48) = (  0.2446453  0.3289887  0.6608735  )
        49           N   tau(  49) = (  0.1249334  0.3605949  0.5844906  )
        50           O   tau(  50) = (  0.0143883  0.0125272  0.5976319  )
        51           Li  tau(  51) = (  0.3097348  0.6512226  0.3321863  )
        52           Li  tau(  52) = (  0.2325186  0.8133797  0.3321863  )
        53           Li  tau(  53) = (  0.1244139  0.5353989  0.3321863  )
        54           Li  tau(  54) = (  0.0047927  0.8510958  0.4810677  )
        55           Li  tau(  55) = (  0.1020673  0.7218265  0.4868898  )
        56           Li  tau(  56) = (  0.1976919  0.9615799  0.4830343  )
        57           Li  tau(  57) = (  0.1192194  0.6566756  0.3916786  )
        58           Li  tau(  58) = (  0.2288831  0.5221537  0.3916786  )
        59           Li  tau(  59) = (  0.3185642  0.8211709  0.3916786  )
        60           Li  tau(  60) = (  0.2073298  0.8577513  0.4185370  )
        61           Li  tau(  61) = (  0.1078082  0.9828866  0.4193475  )
        62           Li  tau(  62) = (  0.0220817  0.6860974  0.4263124  )
        63           Li  tau(  63) = ( -0.0000001  0.4999998  0.3648003  )
        64           Li  tau(  64) = (  1.0053631  0.5036064  0.4526481  )
        65           Cr  tau(  65) = (  0.2224304  0.6690472  0.4563199  )
        66           Cr  tau(  66) = (  0.1111110  0.8333330  0.3591908  )
        67           N   tau(  67) = (  0.3105447  0.6554143  0.4702097  )
        68           N   tau(  68) = (  0.2172607  0.6731093  0.4180431  )
        69           N   tau(  69) = (  0.0175418  0.8434271  0.3474270  )
        70           N   tau(  70) = (  0.1043818  0.6828855  0.3474270  )
        71           N   tau(  71) = (  0.2114098  0.9736874  0.3474270  )
        72           N   tau(  72) = (  0.1271520  0.5333774  0.4671868  )
        73           N   tau(  73) = (  0.2246132  0.8126924  0.4704577  )
        74           N   tau(  74) = (  0.1111110  0.8333330  0.3977842  )
        75           O   tau(  75) = ( -0.0019427  0.5023684  0.4093753  )
        76           Li  tau(  76) = (  0.2977553  0.6451401  0.5160536  )
        77           Li  tau(  77) = (  0.2342408  0.8228107  0.5136198  )
        78           Li  tau(  78) = (  0.1009375  0.5333076  0.5200730  )
        79           Li  tau(  79) = (  0.0329355  0.9014427  0.6720682  )
        80           Li  tau(  80) = (  0.1181739  0.7019167  0.6787496  )
        81           Li  tau(  81) = (  0.2377303  0.0006298  0.6731644  )
        82           Li  tau(  82) = (  0.1000112  0.6489329  0.5825063  )
        83           Li  tau(  83) = (  0.2464612  0.5486663  0.5769500  )
        84           Li  tau(  84) = (  0.2439890  0.7555108  0.5597804  )
        85           Li  tau(  85) = (  0.2092134  0.8834855  0.6184290  )
        86           Li  tau(  86) = (  0.1211793  1.0109287  0.6152200  )
        87           Li  tau(  87) = ( -0.0079122  0.6636914  0.6122636  )
        88           Li  tau(  88) = (  0.9967975  0.5101870  0.5546603  )
        89           Li  tau(  89) = (  0.9966195  0.4998348  0.6415137  )
        90           Cr  tau(  90) = (  0.2314080  0.6881451  0.6492824  )
        91           Cr  tau(  91) = (  0.1184642  0.8299895  0.5486477  )
        92           N   tau(  92) = (  0.3195248  0.6676553  0.6644833  )
        93           N   tau(  93) = (  0.2306688  0.6801616  0.6095109  )
        94           N   tau(  94) = (  0.0197496  0.8357107  0.5337790  )
        95           N   tau(  95) = (  0.1126663  0.6786614  0.5369791  )
        96           N   tau(  96) = (  0.2126062  0.9545843  0.5315600  )
        97           N   tau(  97) = (  0.1334197  0.5607566  0.6678760  )
        98           N   tau(  98) = (  0.2412714  0.8387890  0.6589446  )
        99           N   tau(  99) = (  0.1084771  0.8311891  0.5872278  )
       100           O   tau( 100) = (  0.0009816  0.5011284  0.5982143  )
       101           Li  tau( 101) = (  0.6430655  0.1512218  0.3321863  )
       102           Li  tau( 102) = (  0.5658521  0.3133799  0.3321863  )
       103           Li  tau( 103) = (  0.4577472  0.0353984  0.3321863  )
       104           Li  tau( 104) = (  0.3565016  0.3510950  0.4929932  )
       105           Li  tau( 105) = (  0.4259114  0.1770168  0.4857095  )
       106           Li  tau( 106) = (  0.5476812  0.4905981  0.4859553  )
       107           Li  tau( 107) = (  0.4525527  0.1566758  0.3916786  )
       108           Li  tau( 108) = (  0.5622164  0.0221536  0.3916786  )
       109           Li  tau( 109) = (  0.6518976  0.3211711  0.3916786  )
       110           Li  tau( 110) = (  0.5475464  0.3752855  0.4286665  )
       111           Li  tau( 111) = (  0.4314276  0.4627058  0.4255461  )
       112           Li  tau( 112) = (  0.3586287  0.1950934  0.4306729  )
       113           Li  tau( 113) = (  0.3333333  0.0000000  0.3648003  )
       114           Li  tau( 114) = (  0.3174215  0.9933593  0.4503781  )
       115           Cr  tau( 115) = (  0.5539790  0.1700040  0.4554274  )
       116           Cr  tau( 116) = (  0.4444444  0.3333332  0.3591908  )
       117           N   tau( 117) = (  0.6550965  0.1729030  0.4695918  )
       118           N   tau( 118) = (  0.5639321  0.1773285  0.4184418  )
       119           N   tau( 119) = (  0.3508752  0.3434273  0.3474270  )
       120           N   tau( 120) = (  0.4377148  0.1828847  0.3474270  )
       121           N   tau( 121) = (  0.5447432  0.4736876  0.3474270  )
       122           N   tau( 122) = (  0.4494632  0.0348711  0.4712018  )
       123           N   tau( 123) = (  0.5629149  0.3299169  0.4650519  )
       124           N   tau( 124) = (  0.4444444  0.3333332  0.3977842  )
       125           O   tau( 125) = (  0.3309105  1.0191552  0.4074863  )
       126           Li  tau( 126) = (  0.6654589  0.1286002  0.5173690  )
       127           Li  tau( 127) = (  0.5687454  0.3379723  0.5110464  )
       128           Li  tau( 128) = (  0.4452632  0.0356958  0.5200443  )
       129           Li  tau( 129) = (  0.3585012  0.3607194  0.6708391  )
       130           Li  tau( 130) = (  0.4447515  0.1758183  0.6730116  )
       131           Li  tau( 131) = (  0.5505824  0.4510296  0.6722896  )
       132           Li  tau( 132) = (  0.5684976  0.1788013  0.5456669  )
       133           Li  tau( 133) = (  0.4605180  0.0569898  0.5996671  )
       134           Li  tau( 134) = (  0.6696872  0.3275877  0.5828717  )
       135           Li  tau( 135) = (  0.5541839  0.3405282  0.6108795  )
       136           Li  tau( 136) = (  0.4354610  0.4661271  0.6196315  )
       137           Li  tau( 137) = (  0.3571897  0.1672739  0.6051194  )
       138           Li  tau( 138) = (  0.3470637  0.0162618  0.5576610  )
       139           Li  tau( 139) = (  0.3517236  0.0031412  0.6463725  )
       140           Cr  tau( 140) = (  0.5766450  0.1723038  0.6510297  )
       141           Cr  tau( 141) = (  0.4493622  0.3464842  0.5490087  )
       142           N   tau( 142) = (  0.6608718  0.1572325  0.6705578  )
       143           N   tau( 143) = (  0.5791627  0.1780371  0.6094821  )
       144           N   tau( 144) = (  0.3518758  0.3441308  0.5367001  )
       145           N   tau( 145) = (  0.4401145  0.1865369  0.5324104  )
       146           N   tau( 146) = (  0.5454967  0.5026205  0.5376058  )
       147           N   tau( 147) = (  0.4693670  0.0420496  0.6639008  )
       148           N   tau( 148) = (  0.5667540  0.3140186  0.6602623  )
       149           N   tau( 149) = (  0.4415438  0.3452776  0.5866897  )
       150           O   tau( 150) = (  0.3212169  0.9924351  0.5999971  )
       151           Li  tau( 151) = (  0.6430682  0.6512226  0.3321863  )
       152           Li  tau( 152) = (  0.5658520  0.8133797  0.3321863  )
       153           Li  tau( 153) = (  0.4577474  0.5353989  0.3321863  )
       154           Li  tau( 154) = (  0.3504701  0.8570498  0.4882385  )
       155           Li  tau( 155) = (  0.4515611  0.7487956  0.4808994  )
       156           Li  tau( 156) = (  0.5544119 -0.0104522  0.4924861  )
       157           Li  tau( 157) = (  0.4525527  0.6566756  0.3916786  )
       158           Li  tau( 158) = (  0.5622164  0.5221537  0.3916786  )
       159           Li  tau( 159) = (  0.6518976  0.8211709  0.3916786  )
       160           Li  tau( 160) = (  0.5512513  0.8417518  0.4172437  )
       161           Li  tau( 161) = (  0.4429714  0.9616549  0.4294283  )
       162           Li  tau( 162) = (  0.3437405  0.6797607  0.4208335  )
       163           Li  tau( 163) = (  0.3333333  0.4999998  0.3648003  )
       164           Li  tau( 164) = (  0.3485666  0.5138888  0.4626801  )
       165           Cr  tau( 165) = (  0.5534207  0.6787606  0.4582753  )
       166           Cr  tau( 166) = (  0.4444443  0.8333330  0.3591908  )
       167           N   tau( 167) = (  0.6522546  0.6863980  0.4695962  )
       168           N   tau( 168) = (  0.5461657  0.6588367  0.4192324  )
       169           N   tau( 169) = (  0.3508751  0.8434271  0.3474270  )
       170           N   tau( 170) = (  0.4377151  0.6828855  0.3474270  )
       171           N   tau( 171) = (  0.5447431  0.9736874  0.3474270  )
       172           N   tau( 172) = (  0.4600470  0.5447682  0.4739722  )
       173           N   tau( 173) = (  0.5751563  0.8477848  0.4672621  )
       174           N   tau( 174) = (  0.4444443  0.8333330  0.3977842  )
       175           O   tau( 175) = (  0.3220068  0.5032683  0.4097230  )
       176           Li  tau( 176) = (  0.6470592  0.6421165  0.5180179  )
       177           Li  tau( 177) = (  0.5874653  0.8481107  0.5269382  )
       178           Li  tau( 178) = (  0.4941754  0.6067356  0.5250337  )
       179           Li  tau( 179) = (  0.3998052  0.8633712  0.6746526  )
       180           Li  tau( 180) = (  0.4111381  0.6530558  0.6788492  )
       181           Li  tau( 181) = (  0.5552484  0.9562120  0.6754631  )
       182           Li  tau( 182) = (  0.4610904  0.6601364  0.5828740  )
       183           Li  tau( 183) = (  0.5626308  0.5144151  0.5933843  )
       184           Li  tau( 184) = (  0.6514796  0.8420939  0.5799684  )
       185           Li  tau( 185) = (  0.5515662  0.8580550  0.6187014  )
       186           Li  tau( 186) = (  0.3334847  0.8466794  0.6009405  )
       187           Li  tau( 187) = (  0.3544797  0.6757877  0.6084479  )
       188           Li  tau( 188) = (  0.3497542  0.5152968  0.5480963  )
       189           Li  tau( 189) = (  0.3350320  0.5057797  0.6455376  )
       190           Cr  tau( 190) = (  0.5617595  0.6682333  0.6524958  )
       191           Cr  tau( 191) = (  0.4574301  0.8601543  0.5505832  )
       192           N   tau( 192) = (  0.6640146  0.6640224  0.6600608  )
       193           N   tau( 193) = (  0.5648738  0.6789175  0.6120820  )
       194           N   tau( 194) = (  0.3497335  0.8544139  0.5356703  )
       195           N   tau( 195) = (  0.4528394  0.7142762  0.5410473  )
       196           N   tau( 196) = (  0.5501053  0.9964345  0.5327293  )
       197           N   tau( 197) = (  0.4525381  0.5365356  0.6685736  )
       198           N   tau( 198) = (  0.5631448  0.8096324  0.6655308  )
       199           N   tau( 199) = (  0.4618281  0.8619521  0.5907889  )
       200           O   tau( 200) = (  0.3427165  0.5111203  0.5970384  )
       201           Li  tau( 201) = (  0.9764000  0.1512218  0.3321863  )
       202           Li  tau( 202) = (  0.8991866  0.3133799  0.3321863  )
       203           Li  tau( 203) = (  0.7910799  0.0353984  0.3321863  )
       204           Li  tau( 204) = (  0.7045395  0.3532814  0.4839445  )
       205           Li  tau( 205) = (  0.7740196  0.1864903  0.4809747  )
       206           Li  tau( 206) = (  0.8899171  0.4817430  0.4843187  )
       207           Li  tau( 207) = (  0.7858861  0.1566758  0.3916786  )
       208           Li  tau( 208) = (  0.8955479  0.0221536  0.3916786  )
       209           Li  tau( 209) = (  0.9852327  0.3211711  0.3916786  )
       210           Li  tau( 210) = (  0.8695328  0.3345580  0.4245761  )
       211           Li  tau( 211) = (  0.7815499  0.4845176  0.4230591  )
       212           Li  tau( 212) = (  0.6822556  0.1950326  0.4235486  )
       213           Li  tau( 213) = (  0.6666690  0.0000000  0.3648003  )
       214           Li  tau( 214) = (  0.6760340  0.0048118  0.4470829  )
       215           Cr  tau( 215) = (  0.8926629  0.1680129  0.4583750  )
       216           Cr  tau( 216) = (  0.7777800  0.3333332  0.3591908  )
       217           N   tau( 217) = (  0.9843487  0.1591659  0.4731661  )
       218           N   tau( 218) = (  0.8919098  0.1658062  0.4193542  )
       219           N   tau( 219) = (  0.6842085  0.3434273  0.3474270  )
       220           N   tau( 220) = (  0.7710469  0.1828847  0.3474270  )
       221           N   tau( 221) = (  0.8780741  0.4736876  0.3474270  )
       222           N   tau( 222) = (  0.7968743  0.0291828  0.4703182  )
       223           N   tau( 223) = (  0.8970031  0.3236430  0.4709139  )
       224           N   tau( 224) = (  0.7777800  0.3333332  0.3977842  )
       225           O   tau( 225) = (  0.6664186  0.9956915  0.4073202  )
       226           Li  tau( 226) = (  0.9621535  0.1611499  0.5298903  )
       227           Li  tau( 227) = (  0.9006422  0.3393469  0.5157391  )
       228           Li  tau( 228) = (  0.7834855  0.0277808  0.5226375  )
       229           Li  tau( 229) = (  0.6964947  0.3603934  0.6748098  )
       230           Li  tau( 230) = (  0.7789961  0.2007184  0.6780165  )
       231           Li  tau( 231) = (  0.9021309  0.5047968  0.6819541  )
       232           Li  tau( 232) = (  0.7589444  0.1067257  0.5810137  )
       233           Li  tau( 233) = (  0.8950091  0.0512892  0.5802630  )
       234           Li  tau( 234) = (  0.9897429  0.3354204  0.5789697  )
       235           Li  tau( 235) = (  0.8785186  0.3315699  0.6093271  )
       236           Li  tau( 236) = (  0.8068694  0.4808431  0.6179838  )
       237           Li  tau( 237) = (  0.6940392  0.1992456  0.6161568  )
       238           Li  tau( 238) = (  0.5888604  0.0172054  0.5764982  )
       239           Li  tau( 239) = (  0.6905211  1.0165639  0.6461112  )
       240           Cr  tau( 240) = (  0.9006115  0.1914554  0.6490588  )
       241           Cr  tau( 241) = (  0.7842760  0.3377607  0.5478726  )
       242           N   tau( 242) = (  0.9942754  0.1818978  0.6601981  )
       243           N   tau( 243) = (  0.9050436  0.1773660  0.6095773  )
       244           N   tau( 244) = (  0.6838679  0.3320649  0.5363480  )
       245           N   tau( 245) = (  0.7811163  0.1945083  0.5284508  )
       246           N   tau( 246) = (  0.8821417  0.4804200  0.5345630  )
       247           N   tau( 247) = (  0.7999497  0.0422309  0.6645829  )
       248           N   tau( 248) = (  0.9211526  0.3424596  0.6607716  )
       249           N   tau( 249) = (  0.7874397  0.3512316  0.5882709  )
       250           O   tau( 250) = (  0.6665305  0.9856672  0.6061558  )
       251           Li  tau( 251) = (  0.9764026  0.6512226  0.3321863  )
       252           Li  tau( 252) = (  0.8991830  0.8133797  0.3321863  )
       253           Li  tau( 253) = (  0.7910824  0.5353989  0.3321863  )
       254           Li  tau( 254) = (  0.6893838  0.8788211  0.4835414  )
       255           Li  tau( 255) = (  0.7675592  0.6968899  0.4814309  )
       256           Li  tau( 256) = (  0.8869146  0.9546279  0.4884578  )
       257           Li  tau( 257) = (  0.7858860  0.6566756  0.3916786  )
       258           Li  tau( 258) = (  0.8955503  0.5221537  0.3916786  )
       259           Li  tau( 259) = (  0.9852291  0.8211709  0.3916786  )
       260           Li  tau( 260) = (  0.8836224  0.8374943  0.4202976  )
       261           Li  tau( 261) = (  0.7611445  0.9401569  0.4213584  )
       262           Li  tau( 262) = (  0.6729987  0.6716274  0.4193741  )
       263           Li  tau( 263) = (  0.6666666  0.4999998  0.3648003  )
       264           Li  tau( 264) = (  0.6835925  0.5177464  0.4515142  )
       265           Cr  tau( 265) = (  0.8862160  0.6633574  0.4556156  )
       266           Cr  tau( 266) = (  0.7777776  0.8333330  0.3591908  )
       267           N   tau( 267) = (  0.9756491  0.6531874  0.4704732  )
       268           N   tau( 268) = (  0.8860667  0.6599815  0.4174297  )
       269           N   tau( 269) = (  0.6842084  0.8434271  0.3474270  )
       270           N   tau( 270) = (  0.7710484  0.6828855  0.3474270  )
       271           N   tau( 271) = (  0.8780764  0.9736874  0.3474270  )
       272           N   tau( 272) = (  0.7854785  0.5381360  0.4733211  )
       273           N   tau( 273) = (  0.8968278  0.8083478  0.4658159  )
       274           N   tau( 274) = (  0.7777776  0.8333330  0.3977842  )
       275           O   tau( 275) = (  0.6727612  0.5178122  0.4098647  )
       276           Li  tau( 276) = (  0.9551697  0.6612833  0.5244889  )
       277           Li  tau( 277) = (  0.8918069  0.8008593  0.5196567  )
       278           Li  tau( 278) = (  0.7948741  0.5572056  0.5117551  )
       279           Li  tau( 279) = (  0.6945256  0.8452096  0.6706531  )
       280           Li  tau( 280) = (  0.7896675  0.6991998  0.6768185  )
       281           Li  tau( 281) = (  0.8876527  0.9880622  0.6695015  )
       282           Li  tau( 282) = (  0.7791659  0.6529677  0.5835295  )
       283           Li  tau( 283) = (  0.8894106  0.5271056  0.5770275  )
       284           Li  tau( 284) = (  0.9743132  0.8221032  0.5783363  )
       285           Li  tau( 285) = (  0.8954153  0.8500279  0.6099228  )
       286           Li  tau( 286) = (  0.7773998  0.9540367  0.6230862  )
       287           Li  tau( 287) = (  0.6833193  0.7209387  0.6186305  )
       288           Li  tau( 288) = (  0.6582601  0.5000028  0.5573510  )
       289           Li  tau( 289) = (  0.6933986  0.5292708  0.6381254  )
       290           Cr  tau( 290) = (  0.9002136  0.6950061  0.6493311  )
       291           Cr  tau( 291) = (  0.7831739  0.8383729  0.5512011  )
       292           N   tau( 292) = (  0.9908449  0.6789105  0.6595071  )
       293           N   tau( 293) = (  0.8786326  0.6582273  0.6112870  )
       294           N   tau( 294) = (  0.6961294  0.8569729  0.5354688  )
       295           N   tau( 295) = (  0.7753721  0.6881897  0.5357057  )
       296           N   tau( 296) = (  0.8881961  0.9641510  0.5383389  )
       297           N   tau( 297) = (  0.8061622  0.5570568  0.6643526  )
       298           N   tau( 298) = (  0.9039297  0.8550405  0.6556759  )
       299           N   tau( 299) = (  0.7807391  0.8414704  0.5901599  )
       300           O   tau( 300) = (  0.6699981  0.4960875  0.5987525  )

     number of k points=     1  Gaussian smearing, width (Ry)=  0.0147
                       cart. coord. in units 2pi/alat
        k(    1) = (   0.0000000   0.0000000   0.0000000), wk =   2.0000000

                       cryst. coord.
        k(    1) = (   0.0000000   0.0000000   0.0000000), wk =   2.0000000

     Dense  grid:  5457965 G-vectors     FFT dimensions: ( 240, 160, 640)

     Smooth grid:  2970742 G-vectors     FFT dimensions: ( 200, 135, 540)

     Dynamical RAM for                 wfc:    1182.84 MB

     Dynamical RAM for     wfc (w. buffer):    1182.84 MB

     Dynamical RAM for           str. fact:      83.28 MB

     Dynamical RAM for           local pot:       0.00 MB

     Dynamical RAM for          nlocal pot:    3977.76 MB

     Dynamical RAM for                qrad:       7.46 MB

     Dynamical RAM for          rho,v,vnew:     203.09 MB

     Dynamical RAM for               rhoin:      67.70 MB

     Dynamical RAM for            rho*nmix:     333.13 MB

     Dynamical RAM for           G-vectors:      83.74 MB

     Dynamical RAM for          h,s,v(r/c):      63.83 MB

     Dynamical RAM for          <psi|beta>:      17.89 MB

     Dynamical RAM for                 psi:    2365.69 MB

     Dynamical RAM for                hpsi:    2365.69 MB

     Dynamical RAM for                spsi:    2365.69 MB

     Dynamical RAM for      wfcinit/wfcrot:    4336.08 MB

     Dynamical RAM for           addusdens:    7370.47 MB

     Dynamical RAM for          addusforce:   14335.60 MB

     Dynamical RAM for         addusstress:    4184.93 MB

     Estimated static dynamical RAM per process >       5.81 GB

     Estimated max dynamical RAM per process >      20.13 GB

     Estimated total dynamical RAM >      80.52 GB

     Check: negative core charge=   -0.000002

     Initial potential from superposition of free atoms

     starting charge    1292.2742, renormalised to    1392.0000

     negative rho (up, down):  2.499E-02 0.000E+00
     Starting wfcs are 1512 randomized atomic wfcs
     Checking if some PAW data can be deallocated... 

     total cpu time spent up to now is       34.7 secs

     per-process dynamical memory:  1708.5 Mb

     Self-consistent Calculation
[tb_dev] Currently allocated     1.26E+02 Mbytes, locked:    0 /  11
[tb_pin] Currently allocated     0.00E+00 Mbytes, locked:    0 /   0

     iteration #  1     ecut=    90.00 Ry     beta= 0.20
     Davidson diagonalization with overlap

---- Real-time Memory Report at c_bands before calling an iterative solver
         10171 MiB given to the printing process from OS
          1746 MiB allocation reported by mallinfo(arena+hblkhd)
        465836 MiB available memory on the node where the printing process lives
     GPU memory used/free/total (MiB): 16367 / 48601 / 64969
------------------
     ethr =  1.00E-02,  avg # of iterations =  3.0

     negative rho (up, down):  4.090E-02 0.000E+00

     total cpu time spent up to now is       38.5 secs

     total energy              =   -9071.75000920 Ry
     estimated scf accuracy    <     238.47726691 Ry
[tb_dev] Currently allocated     2.41E+01 Mbytes, locked:    0 /   6
[tb_pin] Currently allocated     0.00E+00 Mbytes, locked:    0 /   0

     iteration #  2     ecut=    90.00 Ry     beta= 0.20
     Davidson diagonalization with overlap

---- Real-time Memory Report at c_bands before calling an iterative solver
         10502 MiB given to the printing process from OS
          2013 MiB allocation reported by mallinfo(arena+hblkhd)
        464869 MiB available memory on the node where the printing process lives
     GPU memory used/free/total (MiB): 31249 / 33719 / 64969
------------------
     ethr =  1.00E-02,  avg # of iterations =  3.0

     negative rho (up, down):  7.678E-02 0.000E+00

     total cpu time spent up to now is       42.2 secs

     total energy              =   -9053.08945908 Ry
     estimated scf accuracy    <      62.91635855 Ry
[tb_dev] Currently allocated     2.41E+01 Mbytes, locked:    0 /   6
[tb_pin] Currently allocated     0.00E+00 Mbytes, locked:    0 /   0

     iteration #  3     ecut=    90.00 Ry     beta= 0.20
     Davidson diagonalization with overlap

---- Real-time Memory Report at c_bands before calling an iterative solver
         10537 MiB given to the printing process from OS
         -2047 MiB allocation reported by mallinfo(arena+hblkhd)
        464727 MiB available memory on the node where the printing process lives
     GPU memory used/free/total (MiB): 31249 / 33719 / 64969
------------------
     ethr =  4.52E-03,  avg # of iterations =  7.0

     negative rho (up, down):  6.521E-02 0.000E+00

     total cpu time spent up to now is       47.7 secs

     total energy              =   -9146.61922566 Ry
     estimated scf accuracy    <     909.43381171 Ry
[tb_dev] Currently allocated     2.41E+01 Mbytes, locked:    0 /   6
[tb_pin] Currently allocated     0.00E+00 Mbytes, locked:    0 /   0

     iteration #  4     ecut=    90.00 Ry     beta= 0.20
     Davidson diagonalization with overlap

---- Real-time Memory Report at c_bands before calling an iterative solver
         10540 MiB given to the printing process from OS
         -2024 MiB allocation reported by mallinfo(arena+hblkhd)
        464474 MiB available memory on the node where the printing process lives
     GPU memory used/free/total (MiB): 31249 / 33719 / 64969
------------------
     ethr =  4.52E-03,  avg # of iterations =  2.0

     negative rho (up, down):  4.390E-02 0.000E+00

     total cpu time spent up to now is       51.1 secs

     total energy              =   -9079.99757269 Ry
     estimated scf accuracy    <    1198.25911815 Ry
[tb_dev] Currently allocated     2.41E+01 Mbytes, locked:    0 /   6
[tb_pin] Currently allocated     0.00E+00 Mbytes, locked:    0 /   0

     iteration #  5     ecut=    90.00 Ry     beta= 0.20
     Davidson diagonalization with overlap

---- Real-time Memory Report at c_bands before calling an iterative solver
         10564 MiB given to the printing process from OS
         -2000 MiB allocation reported by mallinfo(arena+hblkhd)
        464380 MiB available memory on the node where the printing process lives
     GPU memory used/free/total (MiB): 31251 / 33717 / 64969
------------------
     ethr =  4.52E-03,  avg # of iterations =  2.0

     negative rho (up, down):  3.992E-02 0.000E+00

     total cpu time spent up to now is       54.5 secs

     total energy              =   -9096.08761270 Ry
     estimated scf accuracy    <      90.20167994 Ry
[tb_dev] Currently allocated     2.41E+01 Mbytes, locked:    0 /   6
[tb_pin] Currently allocated     0.00E+00 Mbytes, locked:    0 /   0

     iteration #  6     ecut=    90.00 Ry     beta= 0.20
     Davidson diagonalization with overlap

---- Real-time Memory Report at c_bands before calling an iterative solver
         10587 MiB given to the printing process from OS
         -1977 MiB allocation reported by mallinfo(arena+hblkhd)
        464286 MiB available memory on the node where the printing process lives
     GPU memory used/free/total (MiB): 31251 / 33717 / 64969
------------------
     ethr =  4.52E-03,  avg # of iterations =  1.0

     negative rho (up, down):  3.267E-02 0.000E+00

     total cpu time spent up to now is       57.9 secs

     total energy              =   -9092.58942743 Ry
     estimated scf accuracy    <      20.41318097 Ry
[tb_dev] Currently allocated     2.41E+01 Mbytes, locked:    0 /   6
[tb_pin] Currently allocated     0.00E+00 Mbytes, locked:    0 /   0

     iteration #  7     ecut=    90.00 Ry     beta= 0.20
     Davidson diagonalization with overlap

---- Real-time Memory Report at c_bands before calling an iterative solver
         10611 MiB given to the printing process from OS
         -1953 MiB allocation reported by mallinfo(arena+hblkhd)
        464335 MiB available memory on the node where the printing process lives
     GPU memory used/free/total (MiB): 31251 / 33717 / 64969
------------------
     ethr =  1.47E-03,  avg # of iterations =  2.0

     negative rho (up, down):  2.429E-02 0.000E+00

     total cpu time spent up to now is       61.5 secs

     total energy              =   -9105.56455699 Ry
     estimated scf accuracy    <      21.16080110 Ry
[tb_dev] Currently allocated     2.41E+01 Mbytes, locked:    0 /   6
[tb_pin] Currently allocated     0.00E+00 Mbytes, locked:    0 /   0

     iteration #  8     ecut=    90.00 Ry     beta= 0.20
     Davidson diagonalization with overlap

---- Real-time Memory Report at c_bands before calling an iterative solver
         10634 MiB given to the printing process from OS
         -1930 MiB allocation reported by mallinfo(arena+hblkhd)
        464050 MiB available memory on the node where the printing process lives
     GPU memory used/free/total (MiB): 31251 / 33717 / 64969
------------------
     ethr =  1.47E-03,  avg # of iterations =  7.0

     negative rho (up, down):  3.167E-02 0.000E+00

     total cpu time spent up to now is       65.9 secs

     total energy              =   -9086.64028451 Ry
     estimated scf accuracy    <      91.29842821 Ry
[tb_dev] Currently allocated     2.41E+01 Mbytes, locked:    0 /   6
[tb_pin] Currently allocated     0.00E+00 Mbytes, locked:    0 /   0

     iteration #  9     ecut=    90.00 Ry     beta= 0.20
     Davidson diagonalization with overlap

---- Real-time Memory Report at c_bands before calling an iterative solver
         10658 MiB given to the printing process from OS
         -1906 MiB allocation reported by mallinfo(arena+hblkhd)
        464004 MiB available memory on the node where the printing process lives
     GPU memory used/free/total (MiB): 31599 / 33369 / 64969
------------------
     ethr =  1.47E-03,  avg # of iterations =  5.0

     negative rho (up, down):  3.341E-02 0.000E+00

     total cpu time spent up to now is       70.5 secs

     total energy              =   -9095.73290119 Ry
     estimated scf accuracy    <       1.04628537 Ry
[tb_dev] Currently allocated     2.41E+01 Mbytes, locked:    0 /   6
[tb_pin] Currently allocated     0.00E+00 Mbytes, locked:    0 /   0

     iteration # 10     ecut=    90.00 Ry     beta= 0.20
     Davidson diagonalization with overlap

---- Real-time Memory Report at c_bands before calling an iterative solver
         10681 MiB given to the printing process from OS
         -1883 MiB allocation reported by mallinfo(arena+hblkhd)
        463957 MiB available memory on the node where the printing process lives
     GPU memory used/free/total (MiB): 31623 / 33345 / 64969
------------------
     ethr =  7.52E-05,  avg # of iterations = 15.0

     negative rho (up, down):  3.259E-02 0.000E+00

     total cpu time spent up to now is       76.6 secs

     total energy              =   -9095.49297279 Ry
     estimated scf accuracy    <       8.48144518 Ry
[tb_dev] Currently allocated     2.41E+01 Mbytes, locked:    0 /   6
[tb_pin] Currently allocated     0.00E+00 Mbytes, locked:    0 /   0

     iteration # 11     ecut=    90.00 Ry     beta= 0.20
     Davidson diagonalization with overlap

---- Real-time Memory Report at c_bands before calling an iterative solver
         10681 MiB given to the printing process from OS
         -1883 MiB allocation reported by mallinfo(arena+hblkhd)
        463862 MiB available memory on the node where the printing process lives
     GPU memory used/free/total (MiB): 32439 / 32529 / 64969
------------------
     ethr =  7.52E-05,  avg # of iterations =  2.0

     negative rho (up, down):  3.333E-02 0.000E+00

     total cpu time spent up to now is       80.3 secs

     total energy              =   -9095.95549226 Ry
     estimated scf accuracy    <       0.66840595 Ry
[tb_dev] Currently allocated     2.41E+01 Mbytes, locked:    0 /   6
[tb_pin] Currently allocated     0.00E+00 Mbytes, locked:    0 /   0

     iteration # 12     ecut=    90.00 Ry     beta= 0.20
     Davidson diagonalization with overlap

---- Real-time Memory Report at c_bands before calling an iterative solver
         10681 MiB given to the printing process from OS
         -1883 MiB allocation reported by mallinfo(arena+hblkhd)
        463861 MiB available memory on the node where the printing process lives
     GPU memory used/free/total (MiB): 32439 / 32529 / 64969
------------------
     ethr =  4.80E-05,  avg # of iterations =  1.0

     negative rho (up, down):  3.620E-02 0.000E+00

     total cpu time spent up to now is       83.7 secs

     total energy              =   -9095.87451965 Ry
     estimated scf accuracy    <       0.44888551 Ry
[tb_dev] Currently allocated     2.41E+01 Mbytes, locked:    0 /   6
[tb_pin] Currently allocated     0.00E+00 Mbytes, locked:    0 /   0

     iteration # 13     ecut=    90.00 Ry     beta= 0.20
     Davidson diagonalization with overlap

---- Real-time Memory Report at c_bands before calling an iterative solver
         10681 MiB given to the printing process from OS
         -1883 MiB allocation reported by mallinfo(arena+hblkhd)
        463861 MiB available memory on the node where the printing process lives
     GPU memory used/free/total (MiB): 32439 / 32529 / 64969
------------------
     c_bands:  1 eigenvalues not converged
     ethr =  3.22E-05,  avg # of iterations = 20.0

     negative rho (up, down):  3.708E-02 0.000E+00

     total cpu time spent up to now is       88.4 secs

     total energy              =   -9095.87978817 Ry
     estimated scf accuracy    <       0.17349778 Ry
[tb_dev] Currently allocated     2.41E+01 Mbytes, locked:    0 /   6
[tb_pin] Currently allocated     0.00E+00 Mbytes, locked:    0 /   0

     iteration # 14     ecut=    90.00 Ry     beta= 0.20
     Davidson diagonalization with overlap

---- Real-time Memory Report at c_bands before calling an iterative solver
         10681 MiB given to the printing process from OS
         -1883 MiB allocation reported by mallinfo(arena+hblkhd)
        463862 MiB available memory on the node where the printing process lives
     GPU memory used/free/total (MiB): 32439 / 32529 / 64969
------------------
     c_bands:  2 eigenvalues not converged
     ethr =  1.25E-05,  avg # of iterations = 20.0

     negative rho (up, down):  3.797E-02 0.000E+00

     total cpu time spent up to now is       93.7 secs

     total energy              =   -9095.84362988 Ry
     estimated scf accuracy    <       0.30067006 Ry
[tb_dev] Currently allocated     2.41E+01 Mbytes, locked:    0 /   6
[tb_pin] Currently allocated     0.00E+00 Mbytes, locked:    0 /   0

     iteration # 15     ecut=    90.00 Ry     beta= 0.20
     Davidson diagonalization with overlap

---- Real-time Memory Report at c_bands before calling an iterative solver
         10681 MiB given to the printing process from OS
         -1883 MiB allocation reported by mallinfo(arena+hblkhd)
        463861 MiB available memory on the node where the printing process lives
     GPU memory used/free/total (MiB): 32439 / 32529 / 64969
------------------
     ethr =  1.25E-05,  avg # of iterations =  2.0

     negative rho (up, down):  3.809E-02 0.000E+00

     total cpu time spent up to now is       97.3 secs

     total energy              =   -9095.88279753 Ry
     estimated scf accuracy    <       0.07904847 Ry
[tb_dev] Currently allocated     2.41E+01 Mbytes, locked:    0 /   6
[tb_pin] Currently allocated     0.00E+00 Mbytes, locked:    0 /   0

     iteration # 16     ecut=    90.00 Ry     beta= 0.20
     Davidson diagonalization with overlap

---- Real-time Memory Report at c_bands before calling an iterative solver
         10681 MiB given to the printing process from OS
         -1883 MiB allocation reported by mallinfo(arena+hblkhd)
        463861 MiB available memory on the node where the printing process lives
     GPU memory used/free/total (MiB): 32649 / 32319 / 64969
------------------
     ethr =  5.68E-06,  avg # of iterations = 35.0

     negative rho (up, down):  3.858E-02 0.000E+00

     total cpu time spent up to now is      103.7 secs

     total energy              =   -9095.88911634 Ry
     estimated scf accuracy    <       0.00896155 Ry
[tb_dev] Currently allocated     2.41E+01 Mbytes, locked:    0 /   6
[tb_pin] Currently allocated     0.00E+00 Mbytes, locked:    0 /   0

     iteration # 17     ecut=    90.00 Ry     beta= 0.20
     Davidson diagonalization with overlap

---- Real-time Memory Report at c_bands before calling an iterative solver
         10681 MiB given to the printing process from OS
         -1883 MiB allocation reported by mallinfo(arena+hblkhd)
        463861 MiB available memory on the node where the printing process lives
     GPU memory used/free/total (MiB): 32649 / 32319 / 64969
------------------
     c_bands:  3 eigenvalues not converged
     ethr =  6.44E-07,  avg # of iterations = 20.0

     negative rho (up, down):  3.907E-02 0.000E+00

     total cpu time spent up to now is      108.0 secs

     total energy              =   -9095.88921837 Ry
     estimated scf accuracy    <       0.00576634 Ry
[tb_dev] Currently allocated     2.41E+01 Mbytes, locked:    0 /   6
[tb_pin] Currently allocated     0.00E+00 Mbytes, locked:    0 /   0

     iteration # 18     ecut=    90.00 Ry     beta= 0.20
     Davidson diagonalization with overlap

---- Real-time Memory Report at c_bands before calling an iterative solver
         10681 MiB given to the printing process from OS
         -1883 MiB allocation reported by mallinfo(arena+hblkhd)
        463861 MiB available memory on the node where the printing process lives
     GPU memory used/free/total (MiB): 32649 / 32319 / 64969
------------------
     c_bands:  1 eigenvalues not converged
     ethr =  4.14E-07,  avg # of iterations = 20.0

     negative rho (up, down):  3.942E-02 0.000E+00

     total cpu time spent up to now is      112.1 secs

     total energy              =   -9095.88927591 Ry
     estimated scf accuracy    <       0.00171151 Ry
[tb_dev] Currently allocated     2.41E+01 Mbytes, locked:    0 /   6
[tb_pin] Currently allocated     0.00E+00 Mbytes, locked:    0 /   0

     iteration # 19     ecut=    90.00 Ry     beta= 0.20
     Davidson diagonalization with overlap

---- Real-time Memory Report at c_bands before calling an iterative solver
         10681 MiB given to the printing process from OS
         -1883 MiB allocation reported by mallinfo(arena+hblkhd)
        463861 MiB available memory on the node where the printing process lives
     GPU memory used/free/total (MiB): 32649 / 32319 / 64969
------------------
     ethr =  1.23E-07,  avg # of iterations =  2.0

     negative rho (up, down):  3.969E-02 0.000E+00

     total cpu time spent up to now is      115.8 secs

     total energy              =   -9095.88935093 Ry
     estimated scf accuracy    <       0.00059939 Ry
[tb_dev] Currently allocated     2.41E+01 Mbytes, locked:    0 /   6
[tb_pin] Currently allocated     0.00E+00 Mbytes, locked:    0 /   0

     iteration # 20     ecut=    90.00 Ry     beta= 0.20
     Davidson diagonalization with overlap

---- Real-time Memory Report at c_bands before calling an iterative solver
         10681 MiB given to the printing process from OS
         -1883 MiB allocation reported by mallinfo(arena+hblkhd)
        463861 MiB available memory on the node where the printing process lives
     GPU memory used/free/total (MiB): 32649 / 32319 / 64969
------------------
     ethr =  4.31E-08,  avg # of iterations =  2.0

     negative rho (up, down):  3.979E-02 0.000E+00

     total cpu time spent up to now is      119.6 secs

     total energy              =   -9095.88943420 Ry
     estimated scf accuracy    <       0.00015480 Ry
[tb_dev] Currently allocated     2.41E+01 Mbytes, locked:    0 /   6
[tb_pin] Currently allocated     0.00E+00 Mbytes, locked:    0 /   0

     iteration # 21     ecut=    90.00 Ry     beta= 0.20
     Davidson diagonalization with overlap

---- Real-time Memory Report at c_bands before calling an iterative solver
         10681 MiB given to the printing process from OS
         -1883 MiB allocation reported by mallinfo(arena+hblkhd)
        463861 MiB available memory on the node where the printing process lives
     GPU memory used/free/total (MiB): 32649 / 32319 / 64969
------------------
     ethr =  1.11E-08,  avg # of iterations =  2.0

     negative rho (up, down):  3.987E-02 0.000E+00

     total cpu time spent up to now is      123.3 secs

     total energy              =   -9095.88944251 Ry
     estimated scf accuracy    <       0.00008346 Ry
[tb_dev] Currently allocated     2.41E+01 Mbytes, locked:    0 /   6
[tb_pin] Currently allocated     0.00E+00 Mbytes, locked:    0 /   0

     iteration # 22     ecut=    90.00 Ry     beta= 0.20
     Davidson diagonalization with overlap

---- Real-time Memory Report at c_bands before calling an iterative solver
         10681 MiB given to the printing process from OS
         -1883 MiB allocation reported by mallinfo(arena+hblkhd)
        463861 MiB available memory on the node where the printing process lives
     GPU memory used/free/total (MiB): 32649 / 32319 / 64969
------------------
     ethr =  6.00E-09,  avg # of iterations =  4.0

     negative rho (up, down):  3.993E-02 0.000E+00

     total cpu time spent up to now is      127.1 secs

     total energy              =   -9095.88945096 Ry
     estimated scf accuracy    <       0.00002687 Ry
[tb_dev] Currently allocated     2.41E+01 Mbytes, locked:    0 /   6
[tb_pin] Currently allocated     0.00E+00 Mbytes, locked:    0 /   0

     iteration # 23     ecut=    90.00 Ry     beta= 0.20
     Davidson diagonalization with overlap

---- Real-time Memory Report at c_bands before calling an iterative solver
         10681 MiB given to the printing process from OS
         -1883 MiB allocation reported by mallinfo(arena+hblkhd)
        463861 MiB available memory on the node where the printing process lives
     GPU memory used/free/total (MiB): 32649 / 32319 / 64969
------------------
     ethr =  1.93E-09,  avg # of iterations =  4.0

     negative rho (up, down):  3.998E-02 0.000E+00

     total cpu time spent up to now is      131.0 secs

     total energy              =   -9095.88945593 Ry
     estimated scf accuracy    <       0.00001400 Ry
[tb_dev] Currently allocated     2.41E+01 Mbytes, locked:    0 /   6
[tb_pin] Currently allocated     0.00E+00 Mbytes, locked:    0 /   0

     iteration # 24     ecut=    90.00 Ry     beta= 0.20
     Davidson diagonalization with overlap

---- Real-time Memory Report at c_bands before calling an iterative solver
         10681 MiB given to the printing process from OS
         -1883 MiB allocation reported by mallinfo(arena+hblkhd)
        463861 MiB available memory on the node where the printing process lives
     GPU memory used/free/total (MiB): 32649 / 32319 / 64969
------------------
     ethr =  1.01E-09,  avg # of iterations =  2.0

     negative rho (up, down):  4.002E-02 0.000E+00

     total cpu time spent up to now is      134.6 secs

     total energy              =   -9095.88945724 Ry
     estimated scf accuracy    <       0.00000686 Ry
[tb_dev] Currently allocated     2.41E+01 Mbytes, locked:    0 /   6
[tb_pin] Currently allocated     0.00E+00 Mbytes, locked:    0 /   0

     iteration # 25     ecut=    90.00 Ry     beta= 0.20
     Davidson diagonalization with overlap

---- Real-time Memory Report at c_bands before calling an iterative solver
         10681 MiB given to the printing process from OS
         -1883 MiB allocation reported by mallinfo(arena+hblkhd)
        463861 MiB available memory on the node where the printing process lives
     GPU memory used/free/total (MiB): 32649 / 32319 / 64969
------------------
     ethr =  4.93E-10,  avg # of iterations =  2.0

     negative rho (up, down):  4.005E-02 0.000E+00

     total cpu time spent up to now is      138.3 secs

     total energy              =   -9095.88945815 Ry
     estimated scf accuracy    <       0.00000235 Ry
[tb_dev] Currently allocated     2.41E+01 Mbytes, locked:    0 /   6
[tb_pin] Currently allocated     0.00E+00 Mbytes, locked:    0 /   0

     iteration # 26     ecut=    90.00 Ry     beta= 0.20
     Davidson diagonalization with overlap

---- Real-time Memory Report at c_bands before calling an iterative solver
         10681 MiB given to the printing process from OS
         -1883 MiB allocation reported by mallinfo(arena+hblkhd)
        463861 MiB available memory on the node where the printing process lives
     GPU memory used/free/total (MiB): 32649 / 32319 / 64969
------------------
     ethr =  1.69E-10,  avg # of iterations =  4.0

     negative rho (up, down):  4.007E-02 0.000E+00

     total cpu time spent up to now is      142.3 secs

     total energy              =   -9095.88945849 Ry
     estimated scf accuracy    <       0.00000084 Ry
[tb_dev] Currently allocated     2.41E+01 Mbytes, locked:    0 /   6
[tb_pin] Currently allocated     0.00E+00 Mbytes, locked:    0 /   0

     iteration # 27     ecut=    90.00 Ry     beta= 0.20
     Davidson diagonalization with overlap

---- Real-time Memory Report at c_bands before calling an iterative solver
         10681 MiB given to the printing process from OS
         -1883 MiB allocation reported by mallinfo(arena+hblkhd)
        463861 MiB available memory on the node where the printing process lives
     GPU memory used/free/total (MiB): 32649 / 32319 / 64969
------------------
     ethr =  6.01E-11,  avg # of iterations =  2.0

     negative rho (up, down):  4.008E-02 0.000E+00

     total cpu time spent up to now is      146.2 secs

     total energy              =   -9095.88945864 Ry
     estimated scf accuracy    <       0.00000024 Ry
[tb_dev] Currently allocated     2.41E+01 Mbytes, locked:    0 /   6
[tb_pin] Currently allocated     0.00E+00 Mbytes, locked:    0 /   0

     iteration # 28     ecut=    90.00 Ry     beta= 0.20
     Davidson diagonalization with overlap

---- Real-time Memory Report at c_bands before calling an iterative solver
         10681 MiB given to the printing process from OS
         -1883 MiB allocation reported by mallinfo(arena+hblkhd)
        463861 MiB available memory on the node where the printing process lives
     GPU memory used/free/total (MiB): 32649 / 32319 / 64969
------------------
     ethr =  1.71E-11,  avg # of iterations =  5.0

     negative rho (up, down):  4.009E-02 0.000E+00

     total cpu time spent up to now is      150.2 secs

     total energy              =   -9095.88945869 Ry
     estimated scf accuracy    <       0.00000015 Ry
[tb_dev] Currently allocated     2.41E+01 Mbytes, locked:    0 /   6
[tb_pin] Currently allocated     0.00E+00 Mbytes, locked:    0 /   0

     iteration # 29     ecut=    90.00 Ry     beta= 0.20
     Davidson diagonalization with overlap

---- Real-time Memory Report at c_bands before calling an iterative solver
         10681 MiB given to the printing process from OS
         -1883 MiB allocation reported by mallinfo(arena+hblkhd)
        463861 MiB available memory on the node where the printing process lives
     GPU memory used/free/total (MiB): 32649 / 32319 / 64969
------------------
     ethr =  1.04E-11,  avg # of iterations =  2.0

     negative rho (up, down):  4.012E-02 0.000E+00

[...]
     atom  143 type  1   force =    -0.00000273   -0.00000735    0.00000014
     atom  144 type  1   force =     0.00001374   -0.00001839    0.00000959
     atom  145 type  1   force =    -0.00001391    0.00002271    0.00002574
     atom  146 type  1   force =    -0.00002327   -0.00001235    0.00002616
     atom  147 type  1   force =     0.00002119    0.00000509   -0.00000158
     atom  148 type  1   force =     0.00000931   -0.00001059   -0.00000330
     atom  149 type  1   force =     0.00000667   -0.00000266   -0.00002697
     atom  150 type  4   force =     0.00000483    0.00000111   -0.00001267
     atom  151 type  2   force =     0.00000112    0.00000131   -0.00000337
     atom  152 type  2   force =     0.00000038    0.00000068   -0.00000385
     atom  153 type  2   force =     0.00000004   -0.00000022   -0.00000215
     atom  154 type  2   force =     0.00001029   -0.00000610    0.00000503
     atom  155 type  2   force =     0.00000147   -0.00000133    0.00000945
     atom  156 type  2   force =    -0.00000917   -0.00000068   -0.00000068
     atom  157 type  2   force =    -0.00000069   -0.00001128    0.00000139
     atom  158 type  2   force =    -0.00000017   -0.00000224   -0.00000124
     atom  159 type  2   force =    -0.00000205    0.00000392   -0.00000662
     atom  160 type  2   force =    -0.00000208   -0.00000237    0.00000049
     atom  161 type  2   force =     0.00000302    0.00000271   -0.00000242
     atom  162 type  2   force =     0.00000303    0.00000432   -0.00000446
     atom  163 type  2   force =     0.00000503   -0.00000206    0.00000516
     atom  164 type  2   force =     0.00000255    0.00000807    0.00000518
     atom  165 type  3   force =     0.00000582   -0.00003094    0.00004353
     atom  166 type  3   force =    -0.00000259    0.00001517   -0.00000362
     atom  167 type  1   force =    -0.00001624    0.00000727    0.00002546
     atom  168 type  1   force =    -0.00000782   -0.00001857    0.00007415
     atom  169 type  1   force =    -0.00000259    0.00000375    0.00001985
     atom  170 type  1   force =     0.00000828   -0.00000381    0.00001597
     atom  171 type  1   force =     0.00000281    0.00000447    0.00002333
     atom  172 type  1   force =     0.00000579    0.00001321    0.00003665
     atom  173 type  1   force =     0.00000096   -0.00000303    0.00004410
     atom  174 type  1   force =    -0.00000656    0.00000880    0.00005700
     atom  175 type  4   force =     0.00001652   -0.00000203    0.00002840
     atom  176 type  2   force =    -0.00000517    0.00000652   -0.00000120
     atom  177 type  2   force =    -0.00000876   -0.00000672   -0.00000018
     atom  178 type  2   force =    -0.00000114    0.00000424   -0.00000403
     atom  179 type  2   force =     0.00000236   -0.00000567   -0.00000265
     atom  180 type  2   force =     0.00000754    0.00001280    0.00000382
     atom  181 type  2   force =    -0.00000509   -0.00000184   -0.00000294
     atom  182 type  2   force =     0.00000002    0.00000387   -0.00000753
     atom  183 type  2   force =    -0.00000186   -0.00000582   -0.00000637
     atom  184 type  2   force =    -0.00000688   -0.00000114   -0.00001023
     atom  185 type  2   force =    -0.00000519    0.00000553    0.00000131
     atom  186 type  2   force =     0.00000626    0.00000755   -0.00000015
     atom  187 type  2   force =    -0.00000075    0.00000456    0.00000069
     atom  188 type  2   force =     0.00000341    0.00000347   -0.00000179
     atom  189 type  2   force =    -0.00000596   -0.00000016   -0.00001075
     atom  190 type  3   force =    -0.00003436    0.00007791    0.00003796
     atom  191 type  3   force =     0.00000606   -0.00001048    0.00005154
     atom  192 type  1   force =    -0.00000204    0.00000523   -0.00001227
     atom  193 type  1   force =     0.00000082    0.00000723   -0.00000784
     atom  194 type  1   force =     0.00002585   -0.00000282    0.00001042
     atom  195 type  1   force =     0.00001202    0.00000590    0.00000050
     atom  196 type  1   force =     0.00001371    0.00001163    0.00000135
     atom  197 type  1   force =     0.00001723    0.00001792   -0.00000350
     atom  198 type  1   force =     0.00000208   -0.00000349   -0.00000584
     atom  199 type  1   force =    -0.00000068    0.00000709   -0.00002014
     atom  200 type  4   force =     0.00000034   -0.00000338   -0.00000389
     atom  201 type  2   force =     0.00000050    0.00000020   -0.00000242
     atom  202 type  2   force =    -0.00000170    0.00000047   -0.00000182
     atom  203 type  2   force =     0.00000020   -0.00000285   -0.00000117
     atom  204 type  2   force =    -0.00000705   -0.00000325   -0.00000574
     atom  205 type  2   force =     0.00000938    0.00000438    0.00000150
     atom  206 type  2   force =    -0.00000577    0.00000228   -0.00000116
     atom  207 type  2   force =     0.00000157   -0.00000491   -0.00000855
     atom  208 type  2   force =     0.00000063    0.00000055   -0.00000190
     atom  209 type  2   force =    -0.00000258   -0.00000235   -0.00000707
     atom  210 type  2   force =    -0.00000242    0.00000138   -0.00000089
     atom  211 type  2   force =    -0.00000411    0.00000417   -0.00000305
     atom  212 type  2   force =    -0.00001478    0.00000282   -0.00000407
     atom  213 type  2   force =     0.00000076    0.00000287    0.00000282
     atom  214 type  2   force =    -0.00000024   -0.00000220    0.00000181
     atom  215 type  3   force =    -0.00001807   -0.00002356    0.00005843
     atom  216 type  3   force =     0.00002931   -0.00002616    0.00000168
     atom  217 type  1   force =    -0.00002623   -0.00000457    0.00003340
     atom  218 type  1   force =    -0.00000660   -0.00000870    0.00005699
     atom  219 type  1   force =    -0.00000011   -0.00000435    0.00002758
     atom  220 type  1   force =     0.00000048    0.00000648    0.00003673
     atom  221 type  1   force =     0.00000532   -0.00001217    0.00002649
     atom  222 type  1   force =     0.00001760    0.00001997    0.00002933
     atom  223 type  1   force =     0.00000659   -0.00002408    0.00002969
     atom  224 type  1   force =     0.00000095   -0.00000559    0.00004568
     atom  225 type  4   force =     0.00000030    0.00002014    0.00001968
     atom  226 type  2   force =    -0.00000192   -0.00000150    0.00000550
     atom  227 type  2   force =    -0.00000048   -0.00000374   -0.00000258
     atom  228 type  2   force =     0.00000261    0.00000081    0.00000603
     atom  229 type  2   force =    -0.00000025   -0.00000166   -0.00000270
     atom  230 type  2   force =     0.00000501    0.00000909    0.00000144
     atom  231 type  2   force =    -0.00000307   -0.00000560   -0.00000165
     atom  232 type  2   force =    -0.00000329    0.00000099   -0.00000750
     atom  233 type  2   force =     0.00000215   -0.00000389   -0.00001103
     atom  234 type  2   force =     0.00000520   -0.00000290   -0.00000416
     atom  235 type  2   force =    -0.00000393    0.00000249    0.00000206
     atom  236 type  2   force =    -0.00000581   -0.00000413    0.00000577
     atom  237 type  2   force =     0.00000305   -0.00000015   -0.00000090
     atom  238 type  2   force =    -0.00000288   -0.00000424   -0.00000311
     atom  239 type  2   force =    -0.00000874   -0.00000143   -0.00000168
     atom  240 type  3   force =     0.00001665    0.00004165    0.00006168
     atom  241 type  3   force =     0.00000813    0.00001221    0.00001604
     atom  242 type  1   force =    -0.00002083    0.00000677   -0.00000917
     atom  243 type  1   force =     0.00000324   -0.00000214   -0.00000545
     atom  244 type  1   force =    -0.00001877   -0.00000743   -0.00000578
     atom  245 type  1   force =     0.00001942   -0.00002117   -0.00000029
     atom  246 type  1   force =    -0.00000182    0.00000338   -0.00000391
     atom  247 type  1   force =     0.00001038    0.00002026   -0.00001547
     atom  248 type  1   force =     0.00000742   -0.00000754   -0.00000618
     atom  249 type  1   force =     0.00000149   -0.00000322    0.00001262
     atom  250 type  4   force =    -0.00001552    0.00000215   -0.00000692
     atom  251 type  2   force =     0.00000207    0.00000099   -0.00000207
     atom  252 type  2   force =    -0.00000158    0.00000010   -0.00000291
     atom  253 type  2   force =    -0.00000081    0.00000026   -0.00000165
     atom  254 type  2   force =    -0.00000046   -0.00000651    0.00000014
     atom  255 type  2   force =     0.00000597    0.00000477   -0.00000470
     atom  256 type  2   force =    -0.00000228    0.00000007   -0.00000501
     atom  257 type  2   force =     0.00000344   -0.00000738    0.00000494
     atom  258 type  2   force =     0.00000090    0.00000521   -0.00000129
     atom  259 type  2   force =    -0.00000837   -0.00000034    0.00000209
     atom  260 type  2   force =     0.00000099   -0.00000461   -0.00000137
     atom  261 type  2   force =     0.00000796    0.00000144    0.00000192
     atom  262 type  2   force =     0.00000399   -0.00000148    0.00000689
     atom  263 type  2   force =     0.00000163   -0.00000238    0.00000491
     atom  264 type  2   force =     0.00000037    0.00000017   -0.00000407
     atom  265 type  3   force =     0.00000059   -0.00002488    0.00000582
     atom  266 type  3   force =    -0.00001872    0.00002305   -0.00001431
     atom  267 type  1   force =     0.00000258   -0.00000067    0.00003876
     atom  268 type  1   force =    -0.00000368   -0.00000820    0.00003862
     atom  269 type  1   force =     0.00001265    0.00000667    0.00002457
     atom  270 type  1   force =    -0.00000767    0.00000802    0.00001803
     atom  271 type  1   force =    -0.00001281    0.00000093    0.00002431
     atom  272 type  1   force =     0.00000044   -0.00001263    0.00003791
     atom  273 type  1   force =    -0.00001975    0.00002093    0.00003451
     atom  274 type  1   force =     0.00000265    0.00001165    0.00004501
     atom  275 type  4   force =     0.00001734   -0.00000906    0.00004089
     atom  276 type  2   force =    -0.00000448    0.00000097   -0.00000627
     atom  277 type  2   force =    -0.00000084   -0.00000627   -0.00000634
     atom  278 type  2   force =     0.00000464    0.00000234   -0.00000671
     atom  279 type  2   force =    -0.00000721   -0.00000239    0.00000163
     atom  280 type  2   force =     0.00000648   -0.00000442   -0.00000411
     atom  281 type  2   force =     0.00000058    0.00000516   -0.00000074
     atom  282 type  2   force =     0.00000194    0.00000719    0.00000147
     atom  283 type  2   force =     0.00000228    0.00000330    0.00000273
     atom  284 type  2   force =     0.00000038    0.00000135    0.00000637
     atom  285 type  2   force =     0.00000188   -0.00000607   -0.00000016
     atom  286 type  2   force =     0.00000441    0.00000139   -0.00000360
     atom  287 type  2   force =     0.00000518   -0.00000247   -0.00000224
     atom  288 type  2   force =     0.00000011   -0.00000409    0.00000026
     atom  289 type  2   force =     0.00000880   -0.00000553   -0.00000154
     atom  290 type  3   force =    -0.00003659   -0.00000464   -0.00000364
     atom  291 type  3   force =    -0.00001477    0.00001801    0.00005906
     atom  292 type  1   force =    -0.00000133    0.00001093   -0.00001407
     atom  293 type  1   force =    -0.00001418    0.00001599    0.00000973
     atom  294 type  1   force =     0.00000546    0.00000381    0.00001906
     atom  295 type  1   force =    -0.00000930    0.00000978    0.00002308
     atom  296 type  1   force =    -0.00001648    0.00001725    0.00002268
     atom  297 type  1   force =     0.00000547    0.00000951   -0.00001345
     atom  298 type  1   force =    -0.00000430   -0.00001618   -0.00002114
     atom  299 type  1   force =     0.00001188    0.00000105   -0.00001837
     atom  300 type  4   force =     0.00000256   -0.00000977    0.00000197

     Total force =     0.898961     Total SCF correction =     0.000453


     Computing stress (Cartesian axis) and pressure


     negative rho (up, down):  4.012E-02 0.000E+00
          total   stress  (Ry/bohr**3)                   (kbar)     P=        1.14
   0.00001886   0.00000043  -0.00000859            2.77        0.06       -1.26
   0.00000043   0.00004863  -0.00000417            0.06        7.15       -0.61
  -0.00000859  -0.00000417  -0.00004420           -1.26       -0.61       -6.50

     kinetic stress (kbar)   5328.26     -0.32     -0.11
                               -0.32   5332.76     -0.84
                               -0.11     -0.84   5321.33

     local   stress (kbar)-642681.84   -111.32    156.68
                             -111.32-642732.59    -10.27
                              156.68    -10.27 636364.38

     nonloc. stress (kbar)    957.61      0.08      0.21
                                0.08    958.05     -0.03
                                0.21     -0.03    954.59

     hartree stress (kbar) 321962.25     39.96    -60.84
                               39.96 321973.70      3.45
                              -60.84      3.45-316119.16

     exc-cor stress (kbar)  -1263.42      0.17     -0.14
                                0.17  -1263.19      0.02
                               -0.14      0.02  -1265.23

     corecor stress (kbar)   -292.82     -0.00      0.00
                               -0.00   -292.85      0.00
                                0.00      0.00   -292.72

     ewald   stress (kbar) 315992.74     71.50    -97.08
                               71.50 316031.28      7.05
                              -97.08      7.05-324969.69

     hubbard stress (kbar)      0.00      0.00      0.00
                                0.00      0.00      0.00
                                0.00      0.00      0.00

     DFT-D   stress (kbar)      0.00      0.00      0.00
                                0.00      0.00      0.00
                                0.00      0.00      0.00

     XDM     stress (kbar)      0.00      0.00      0.00
                                0.00      0.00      0.00
                                0.00      0.00      0.00

     dft-nl  stress (kbar)      0.00      0.00      0.00
                                0.00      0.00      0.00
                                0.00      0.00      0.00

     TS-vdW  stress (kbar)      0.00      0.00      0.00
                                0.00      0.00      0.00
                                0.00      0.00      0.00

     MDB     stress (kbar)      0.00      0.00      0.00
                                0.00      0.00      0.00
                                0.00      0.00      0.00

     3D-RISM stress (kbar)      0.00      0.00      0.00
                                0.00      0.00      0.00
                                0.00      0.00      0.00


     Writing all to output data dir ./tmp/pwscf.save/
 
     init_run     :     29.45s CPU     34.09s WALL (       1 calls)
     electrons    :    112.30s CPU    119.14s WALL (       1 calls)
     forces       :      3.13s CPU      3.39s WALL (       1 calls)
     stress       :     81.05s CPU     83.50s WALL (       1 calls)

     Called by init_run:
     wfcinit      :      3.48s CPU      5.29s WALL (       1 calls)
                                        5.29s GPU  (       1 calls)
     wfcinit:atom :      0.01s CPU      0.01s WALL (       1 calls)
                                        0.01s GPU  (       1 calls)
     wfcinit:wfcr :      1.29s CPU      2.36s WALL (       1 calls)
                                        2.36s GPU  (       1 calls)
     potinit      :     16.16s CPU     16.43s WALL (       1 calls)
     hinit0       :      7.46s CPU      7.68s WALL (       1 calls)

     Called by electrons:
     c_bands      :     70.69s CPU     72.30s WALL (      29 calls)
     sum_band     :     15.90s CPU     16.24s WALL (      29 calls)
     v_of_rho     :      3.24s CPU      3.36s WALL (      30 calls)
     v_h          :      1.76s CPU      1.82s WALL (      30 calls)
     v_xc         :      1.61s CPU      1.68s WALL (      32 calls)
     newd         :      2.51s CPU      4.89s WALL (      30 calls)
                                        4.89s GPU  (      30 calls)
     PAW_pot      :      3.25s CPU      3.29s WALL (      30 calls)
     mix_rho      :      8.01s CPU      8.29s WALL (      29 calls)

     Called by c_bands:
     init_us_2    :      0.45s CPU      0.61s WALL (      59 calls)
     init_us_2:gp :      0.45s CPU      0.61s WALL (      59 calls)
     regterg      :     61.53s CPU     62.93s WALL (      30 calls)

     Called by sum_band:
     sum_band:wei :      0.01s CPU      0.01s WALL (      29 calls)
                                        0.01s GPU  (      29 calls)
     sum_band:loo :     12.51s CPU     12.77s WALL (      29 calls)
                                       12.77s GPU  (      29 calls)
     sum_band:buf :      1.87s CPU      1.90s WALL (      29 calls)
                                        1.90s GPU  (      29 calls)
     sum_band:ini :      0.23s CPU      0.45s WALL (      29 calls)
                                        0.45s GPU  (      29 calls)
     sum_band:cal :      2.08s CPU      2.12s WALL (      29 calls)
                                        2.12s GPU  (      29 calls)
     sum_band:bec :      0.20s CPU      0.20s WALL (      29 calls)
                                        0.20s GPU  (      29 calls)
     addusdens    :      2.06s CPU      2.12s WALL (      29 calls)
                                        2.12s GPU  (      29 calls)
     addusd:skk   :      0.44s CPU      0.45s WALL (     116 calls)
                                        0.45s GPU  (     116 calls)

     Called by *egterg:
     rdiaghg      :      5.70s CPU      5.78s WALL (     228 calls)
                                        5.77s GPU  (     228 calls)
     regterg:over :      3.77s CPU      3.84s WALL (     198 calls)
     regterg:upda :      2.02s CPU      2.07s WALL (     198 calls)
     regterg:last :      4.16s CPU      4.18s WALL (      65 calls)
     h_psi        :     39.71s CPU     41.74s WALL (     229 calls)
                                       41.74s GPU  (     229 calls)
     s_psi        :      1.03s CPU      4.92s WALL (     229 calls)
                                        4.78s GPU  (     229 calls)
     g_psi        :      0.00s CPU      0.20s WALL (     198 calls)
                                        0.20s GPU  (     198 calls)

     Called by h_psi:
     h_psi:calbec :      5.71s CPU      5.93s WALL (     229 calls)
                                        5.92s GPU  (     229 calls)
     vloc_psi     :     29.49s CPU     30.73s WALL (     229 calls)
                                       30.73s GPU  (     229 calls)
     add_vuspsi   :      0.45s CPU      4.88s WALL (     229 calls)
                                        4.88s GPU  (     229 calls)

     General routines
     calbec       :      8.16s CPU      8.60s WALL (     263 calls)
     fft          :      5.71s CPU      7.70s WALL (     348 calls)
                                        0.83s GPU  (     318 calls)
     ffts         :      2.91s CPU      3.45s WALL (      59 calls)
                                        0.04s GPU  (      29 calls)
     fftw         :     17.89s CPU     29.89s WALL (   16422 calls)
                                       29.72s GPU  (   16422 calls)
     interpolate  :      9.14s CPU     11.51s WALL (      30 calls)
 
     Parallel routines

     PAW routines
     PAW_pot      :      3.25s CPU      3.29s WALL (      30 calls)
 
     PWSCF        :   3m48.33s CPU   4m 7.64s WALL

 
   This run was terminated on:  13:30:20  30Dec2023            

=------------------------------------------------------------------------------=
   JOB DONE.
=------------------------------------------------------------------------------=
