
     Program PWSCF v.7.2 starts on 30Dec2023 at 13:43:15 

     This program is part of the open-source Quantum ESPRESSO suite
     for quantum simulation of materials; please cite
         "P. Giannozzi et al., J. Phys.:Condens. Matter 21 395502 (2009);
         "P. Giannozzi et al., J. Phys.:Condens. Matter 29 465901 (2017);
         "P. Giannozzi et al., J. Chem. Phys. 152 154105 (2020);
          URL http://www.quantum-espresso.org", 
     in publications or presentations arising from this work. More details at
     http://www.quantum-espresso.org/quote

     Parallel version (MPI & OpenMP), running on       4 processor cores
     Number of MPI processes:                 4
     Threads/MPI process:                     1

     MPI processes distributed on     1 nodes
     503973 MiB available memory on the printing compute node when the environment starts
 
     Reading input from input_0005.inp

     Current dimensions of program PWSCF are:
     Max number of different atomic species (ntypx) = 10
     Max number of k-points (npk) =  40000
     Max angular momentum in pseudopotentials (lmaxx) =  4
     file O.pbe-n-kjpaw_psl.0.1.UPF: wavefunction(s)  2P renormalized

     gamma-point specific algorithms are used
 
     R & G space division:  proc/nbgrp/npool/nimage =       4
     Subspace diagonalization in iterative solution of the eigenvalue problem:
     a serial algorithm will be used

 
     Parallelization info
     --------------------
     sticks:   dense  smooth     PW     G-vecs:    dense   smooth      PW
     Min        6485    4324   1079              2728975  1485363  185656
     Max        6486    4326   1080              2728990  1485382  185664
     Sum       25943   17301   4319             10915929  5941483  742635
 
     Using Slab Decomposition
 


     bravais-lattice index     =            0
     lattice parameter (alat)  =      32.3352  a.u.
     unit-cell volume          =   51510.8153 (a.u.)^3
     number of atoms/cell      =          300
     number of atomic types    =            4
     number of electrons       =      1392.00
     number of Kohn-Sham states=          835
     kinetic-energy cutoff     =      90.0000  Ry
     charge density cutoff     =     540.0000  Ry
     scf convergence threshold =      1.0E-07
     mixing beta               =       0.2000
     number of iterations used =            8  plain     mixing
     Exchange-correlation= SLA  PW   PBX  PBC
                           (   1   4   3   4   0   0   0)

     GPU acceleration is ACTIVE.
     GPU-aware MPI enabled


     GPU used by master process:

        Device Number: 0
        Device name: NVIDIA PG506-243
        Compute capability : 80
        Ratio of single to double precision performance  : 2
        Memory Clock Rate (KHz): 1593000
        Memory Bus Width (bits): 4096
        Peak Memory Bandwidth (GB/s): ******

     celldm(1)=  32.335181  celldm(2)=   0.000000  celldm(3)=   0.000000
     celldm(4)=   0.000000  celldm(5)=   0.000000  celldm(6)=   0.000000

     crystal axes: (cart. coord. in units of alat)
               a(1) = (   1.000000   0.000000   0.000000 )  
               a(2) = (  -0.333333   0.577350   0.000000 )  
               a(3) = (   0.000000  -0.000000   2.638962 )  

     reciprocal axes: (cart. coord. in units 2 pi/alat)
               b(1) = (  1.000000  0.577350  0.000000 )  
               b(2) = ( -0.000000  1.732051  0.000000 )  
               b(3) = (  0.000000 -0.000000  0.378937 )  


     PseudoPot. # 1 for N  read from file:
     /leonardo_scratch/large/userexternal/uraucci0/Li_Cr/PPS/N.pbe-n-radius_5.UPF
     MD5 check sum: 16739722b17309cd8fe442a2ace49922
     Pseudo is Ultrasoft + core correction, Zval =  5.0
     Generated using "atomic" code by A. Dal Corso  v.5.1
     Using radial grid of 1085 points,  4 beta functions with: 
                l(1) =   0
                l(2) =   0
                l(3) =   1
                l(4) =   1
     Q(r) pseudized with 0 coefficients 


     PseudoPot. # 2 for Li read from file:
     /leonardo_scratch/large/userexternal/uraucci0/Li_Cr/PPS/li_pbe_v1.4.uspp.F.UPF
     MD5 check sum: e912e257baa3777c20ea3d68f190483c
     Pseudo is Ultrasoft, Zval =  3.0
     Generated by new atomic code, or converted to UPF format
     Using radial grid of  751 points,  5 beta functions with: 
                l(1) =   0
                l(2) =   0
                l(3) =   0
                l(4) =   1
                l(5) =   1
     Q(r) pseudized with 10 coefficients,  rinner =    1.150   1.150   1.150


     PseudoPot. # 3 for Cr read from file:
     /leonardo_scratch/large/userexternal/uraucci0/Li_Cr/PPS/cr_pbe_v1.5.uspp.F.UPF
     MD5 check sum: 0d52af634a40206e4dee301ad30da4bf
     Pseudo is Ultrasoft + core correction, Zval = 14.0
     Generated by new atomic code, or converted to UPF format
     Using radial grid of  857 points,  6 beta functions with: 
                l(1) =   0
                l(2) =   0
                l(3) =   1
                l(4) =   1
                l(5) =   2
                l(6) =   2
     Q(r) pseudized with  8 coefficients,  rinner =    0.950   0.950   0.950
                                                       0.950   0.950

     PseudoPot. # 4 for O  read from file:
     /leonardo_scratch/large/userexternal/uraucci0/Li_Cr/PPS/O.pbe-n-kjpaw_psl.0.1.UPF
     MD5 check sum: 0234752ac141de4415c5fc33072bef88
     Pseudo is Projector augmented-wave + core cor, Zval =  6.0
     Generated using "atomic" code by A. Dal Corso  v.5.0.99 svn rev. 10869
     Shape of augmentation charge: BESSEL
     Using radial grid of 1095 points,  4 beta functions with: 
                l(1) =   0
                l(2) =   0
                l(3) =   1
                l(4) =   1
     Q(r) pseudized with 0 coefficients 


     atomic species   valence    mass     pseudopotential
        N              5.00    14.00674     N ( 1.00)
        Li             3.00     6.94100     Li( 1.00)
        Cr            14.00    51.99610     Cr( 1.00)
        O              6.00    15.99940     O ( 1.00)

     No symmetry found


                                    s                        frac. trans.

      isym =  1     identity                                     

 cryst.   s( 1) = (     1          0          0      )
                  (     0          1          0      )
                  (     0          0          1      )

 cart.    s( 1) = (  1.0000000  0.0000000  0.0000000 )
                  (  0.0000000  1.0000000  0.0000000 )
                  (  0.0000000  0.0000000  1.0000000 )


   Cartesian axes

     site n.     atom                  positions (alat units)
         1           Li  tau(   1) = (   0.2593273   0.0873080   0.8766270  )
         2           Li  tau(   2) = (   0.1280588   0.1809300   0.8766270  )
         3           Li  tau(   3) = (   0.1126144   0.0204373   0.8766270  )
         4           Li  tau(   4) = (  -0.0870999   0.1966140   1.2871864  )
         5           Li  tau(   5) = (   0.0389578   0.1169613   1.2862806  )
         6           Li  tau(   6) = (   0.0466520   0.2688533   1.2962098  )
         7           Li  tau(   7) = (   0.0669942   0.0904568   1.0336250  )
         8           Li  tau(   8) = (   0.2214985   0.0127904   1.0336250  )
         9           Li  tau(   9) = (   0.2115073   0.1854282   1.0336250  )
        10           Li  tau(  10) = (   0.0906508   0.2071481   1.1271962  )
        11           Li  tau(  11) = (  -0.0614404   0.2801460   1.1218955  )
        12           Li  tau(  12) = (  -0.0247566   0.1074470   1.1205396  )
        13           Li  tau(  13) = (   0.0000000   0.0000000   0.9626942  )
        14           Li  tau(  14) = (   0.0060683   0.0084091   1.2043744  )
        15           Cr  tau(  15) = (   0.1707880   0.0999407   1.2074777  )
        16           Cr  tau(  16) = (  -0.0000000   0.1924500   0.9478909  )
        17           N   tau(  17) = (   0.2709549   0.0969783   1.2456051  )
        18           N   tau(  18) = (   0.1712982   0.0929634   1.1043104  )
        19           N   tau(  19) = (  -0.0969339   0.1982778   0.9168466  )
        20           N   tau(  20) = (   0.0434200   0.1055885   0.9168466  )
        21           N   tau(  21) = (   0.0535141   0.2734837   0.9168466  )
        22           N   tau(  22) = (   0.1177257   0.0188547   1.2489830  )
        23           N   tau(  23) = (   0.1214421   0.1787191   1.2312284  )
        24           N   tau(  24) = (  -0.0000000   0.1924500   1.0497374  )
        25           O   tau(  25) = (   0.0035248   0.0080429   1.0804895  )
        26           Li  tau(  26) = (   0.2598252   0.0850831   1.3706413  )
        27           Li  tau(  27) = (   0.1415846   0.2001322   1.3839485  )
        28           Li  tau(  28) = (   0.1109856   0.0346670   1.3818797  )
        29           Li  tau(  29) = (  -0.0798671   0.2165917   1.7759819  )
        30           Li  tau(  30) = (   0.0656810   0.1198665   1.8046418  )
        31           Li  tau(  31) = (   0.0763484   0.2873338   1.7783547  )
        32           Li  tau(  32) = (   0.0717788   0.0885101   1.5242439  )
        33           Li  tau(  33) = (   0.2262118   0.0307350   1.5171315  )
        34           Li  tau(  34) = (   0.2122781   0.1977396   1.5494498  )
        35           Li  tau(  35) = (   0.0863028   0.2055316   1.6373697  )
        36           Li  tau(  36) = (  -0.0508254   0.2723475   1.5962267  )
        37           Li  tau(  37) = (  -0.0424526   0.1038972   1.6278554  )
        38           Li  tau(  38) = (  -0.0066575   0.0145888   1.4680638  )
        39           Li  tau(  39) = (   0.0034175   0.0123324   1.7069563  )
        40           Cr  tau(  40) = (   0.1668689   0.1042485   1.7134025  )
        41           Cr  tau(  41) = (   0.0029088   0.1958063   1.4494559  )
        42           N   tau(  42) = (   0.2650786   0.0958428   1.7411156  )
        43           N   tau(  43) = (   0.1628796   0.0985270   1.6074241  )
        44           N   tau(  44) = (  -0.0986030   0.1908201   1.4182071  )
        45           N   tau(  45) = (   0.0464377   0.1119003   1.4173597  )
        46           N   tau(  46) = (   0.0619816   0.2802302   1.4221344  )
        47           N   tau(  47) = (   0.1189916   0.0233523   1.7638085  )
        48           N   tau(  48) = (   0.1304140   0.1958846   1.7493325  )
        49           N   tau(  49) = (  -0.0068785   0.1849373   1.5501687  )
        50           O   tau(  50) = (  -0.0058278   0.0162314   1.5862097  )
        51           Li  tau(  51) = (   0.0926606   0.3759836   0.8766270  )
        52           Li  tau(  52) = (  -0.0386079   0.4696050   0.8766270  )
        53           Li  tau(  53) = (  -0.0540524   0.3091127   0.8766270  )
        54           Li  tau(  54) = (  -0.2576471   0.4907416   1.2937027  )
        55           Li  tau(  55) = (  -0.1235612   0.4005595   1.2729325  )
        56           Li  tau(  56) = (  -0.1154155   0.5607543   1.2736279  )
        57           Li  tau(  57) = (  -0.0996725   0.3791318   1.0336250  )
        58           Li  tau(  58) = (   0.0548319   0.3014656   1.0336250  )
        59           Li  tau(  59) = (   0.0448406   0.4741032   1.0336250  )
        60           Li  tau(  60) = (  -0.0487798   0.4862843   1.1298144  )
        61           Li  tau(  61) = (  -0.2178418   0.5756640   1.1293235  )
        62           Li  tau(  62) = (  -0.2211350   0.3853833   1.1358046  )
        63           Li  tau(  63) = (  -0.1666667   0.2886750   0.9626942  )
        64           Li  tau(  64) = (  -0.1611889   0.2851697   1.1962276  )
        65           Cr  tau(  65) = (   0.0036701   0.3788788   1.2104173  )
        66           Cr  tau(  66) = (  -0.1666667   0.4811250   0.9478909  )
        67           N   tau(  67) = (   0.1000722   0.3684825   1.2529045  )
        68           N   tau(  68) = (  -0.0002923   0.3830357   1.1017565  )
        69           N   tau(  69) = (  -0.2636006   0.4869528   0.9168466  )
        70           N   tau(  70) = (  -0.1232467   0.3942641   0.9168466  )
        71           N   tau(  71) = (  -0.1131527   0.5621587   0.9168466  )
        72           N   tau(  72) = (  -0.0608671   0.3088480   1.2370434  )
        73           N   tau(  73) = (  -0.0447115   0.4664059   1.2378206  )
        74           N   tau(  74) = (  -0.1666667   0.4811250   1.0497374  )
        75           O   tau(  75) = (  -0.1646463   0.2877405   1.0835226  )
        76           Li  tau(  76) = (   0.0998531   0.3829744   1.3827563  )
        77           Li  tau(  77) = (  -0.0461075   0.4633751   1.3644290  )
        78           Li  tau(  78) = (  -0.0656103   0.3010156   1.3622257  )
        79           Li  tau(  79) = (  -0.2474209   0.4967804   1.7805462  )
        80           Li  tau(  80) = (  -0.1274855   0.4037907   1.7822527  )
        81           Li  tau(  81) = (   0.2335615  -0.0009126   1.7810430  )
        82           Li  tau(  82) = (  -0.0986831   0.3866632   1.5484739  )
        83           Li  tau(  83) = (   0.0746892   0.2846425   1.5343076  )
        84           Li  tau(  84) = (  -0.0059408   0.3815507   1.4784138  )
        85           Li  tau(  85) = (  -0.0682875   0.4995751   1.6325716  )
        86           Li  tau(  86) = (   0.1054454   0.0031555   1.6032806  )
        87           Li  tau(  87) = (  -0.2095127   0.4080284   1.6139111  )
        88           Li  tau(  88) = (   0.8336196   0.2816000   1.4555514  )
        89           Li  tau(  89) = (  -0.1601820   0.3008034   1.6788517  )
        90           Cr  tau(  90) = (  -0.0075715   0.4026985   1.7098258  )
        91           Cr  tau(  91) = (  -0.1706220   0.4804360   1.4500579  )
        92           N   tau(  92) = (   0.0920715   0.3966410   1.7436519  )
        93           N   tau(  93) = (  -0.0051363   0.3978764   1.6063020  )
        94           N   tau(  94) = (  -0.2640792   0.4953591   1.4193759  )
        95           N   tau(  95) = (  -0.1240468   0.3921836   1.4146889  )
        96           N   tau(  96) = (  -0.1134536   0.5551673   1.4248987  )
        97           N   tau(  97) = (  -0.0649697   0.3188812   1.7309233  )
        98           N   tau(  98) = (  -0.0521246   0.4865870   1.7480877  )
        99           N   tau(  99) = (  -0.1766573   0.4848121   1.5527460  )
       100           O   tau( 100) = (  -0.1594438   0.2931183   1.5718564  )
       101           Li  tau( 101) = (   0.5926583   0.0873080   0.8766270  )
       102           Li  tau( 102) = (   0.4613921   0.1809300   0.8766270  )
       103           Li  tau( 103) = (   0.4459477   0.0204373   0.8766270  )
       104           Li  tau( 104) = (   0.2746864   0.2007248   1.2878527  )
       105           Li  tau( 105) = (   0.3818721   0.1191640   1.2798345  )
       106           Li  tau( 106) = (   0.3904888   0.2759587   1.2968001  )
       107           Li  tau( 107) = (   0.4003275   0.0904568   1.0336250  )
       108           Li  tau( 108) = (   0.5548318   0.0127904   1.0336250  )
       109           Li  tau( 109) = (   0.5448406   0.1854282   1.0336250  )
       110           Li  tau( 110) = (   0.4333570   0.1995162   1.1302351  )
       111           Li  tau( 111) = (   0.2687651   0.2555572   1.1314390  )
       112           Li  tau( 112) = (   0.2929547   0.0946576   1.1327131  )
       113           Li  tau( 113) = (   0.3333333   0.0000000   0.9626942  )
       114           Li  tau( 114) = (   0.3283582   0.0039468   1.2012945  )
       115           Cr  tau( 115) = (   0.4996300   0.0991068   1.2108205  )
       116           Cr  tau( 116) = (   0.3333333   0.1924500   0.9478909  )
       117           N   tau( 117) = (   0.5899173   0.0884376   1.2585032  )
       118           N   tau( 118) = (   0.5013208   0.0919558   1.1069169  )
       119           N   tau( 119) = (   0.2363994   0.1982778   0.9168466  )
       120           N   tau( 120) = (   0.3767532   0.1055885   0.9168466  )
       121           N   tau( 121) = (   0.3868473   0.2734837   0.9168466  )
       122           N   tau( 122) = (   0.4345288   0.0201396   1.2544590  )
       123           N   tau( 123) = (   0.4704874   0.1926966   1.2433492  )
       124           N   tau( 124) = (   0.3333333   0.1924500   1.0497374  )
       125           O   tau( 125) = (  -0.0017848   0.5752824   1.0841889  )
       126           Li  tau( 126) = (   0.6172155   0.0888374   1.3868881  )
       127           Li  tau( 127) = (   0.4647146   0.1565340   1.3798401  )
       128           Li  tau( 128) = (   0.4535925   0.0092301   1.3681634  )
       129           Li  tau( 129) = (   0.2459704   0.2118217   1.7785008  )
       130           Li  tau( 130) = (   0.3731106   0.1177088   1.7717040  )
       131           Li  tau( 131) = (   0.4074258   0.2846314   1.7826677  )
       132           Li  tau( 132) = (   0.4006740   0.0734198   1.5267101  )
       133           Li  tau( 133) = (   0.1170414   0.5585698   1.6230865  )
       134           Li  tau( 134) = (   0.5608554   0.2034435   1.5579181  )
       135           Li  tau( 135) = (   0.4320999   0.1985455   1.6131982  )
       136           Li  tau( 136) = (   0.2986084   0.2774606   1.6338632  )
       137           Li  tau( 137) = (   0.3069813   0.0919214   1.6318937  )
       138           Li  tau( 138) = (  -0.0049495   0.5615374   1.4530267  )
       139           Li  tau( 139) = (   0.3470519   0.0029226   1.7007089  )
       140           Cr  tau( 140) = (   0.5071042   0.1028108   1.7097323  )
       141           Cr  tau( 141) = (   0.3343134   0.1853055   1.4577839  )
       142           N   tau( 142) = (   0.6029440   0.1057931   1.7522137  )
       143           N   tau( 143) = (   0.5093846   0.0958410   1.6133618  )
       144           N   tau( 144) = (   0.2409812   0.2025458   1.4392345  )
       145           N   tau( 145) = (   0.3671968   0.1041713   1.4090200  )
       146           N   tau( 146) = (   0.3769753   0.2722067   1.4226370  )
       147           N   tau( 147) = (   0.4521075   0.0159678   1.7436870  )
       148           N   tau( 148) = (   0.4639087   0.1903952   1.7378720  )
       149           N   tau( 149) = (   0.3376861   0.1738643   1.5635694  )
       150           O   tau( 150) = (  -0.0061416   0.5714252   1.5799565  )
       151           Li  tau( 151) = (   0.4259940   0.3759836   0.8766270  )
       152           Li  tau( 152) = (   0.2947255   0.4696050   0.8766270  )
       153           Li  tau( 153) = (   0.2792811   0.3091127   0.8766270  )
       154           Li  tau( 154) = (   0.0776014   0.4818421   1.2764098  )
       155           Li  tau( 155) = (   0.1927551   0.3976082   1.3024339  )
       156           Li  tau( 156) = (   0.2311893   0.5516853   1.3043157  )
       157           Li  tau( 157) = (   0.2336608   0.3791318   1.0336250  )
       158           Li  tau( 158) = (   0.3881652   0.3014656   1.0336250  )
       159           Li  tau( 159) = (   0.3781739   0.4741032   1.0336250  )
       160           Li  tau( 160) = (   0.2786844   0.4887318   1.1242741  )
       161           Li  tau( 161) = (   0.1105473   0.5598689   1.1199085  )
       162           Li  tau( 162) = (   0.1429749   0.3941706   1.1309832  )
       163           Li  tau( 163) = (   0.1666667   0.2886750   0.9626942  )
       164           Li  tau( 164) = (   0.1619755   0.2892565   1.2035036  )
       165           Cr  tau( 165) = (   0.3415707   0.3861694   1.2146309  )
       166           Cr  tau( 166) = (   0.1666667   0.4811250   0.9478909  )
       167           N   tau( 167) = (   0.4418288   0.3736698   1.2520278  )
       168           N   tau( 168) = (   0.3388111   0.3883539   1.1093247  )
       169           N   tau( 169) = (   0.0697328   0.4869528   0.9168466  )
       170           N   tau( 170) = (   0.2100866   0.3942641   0.9168466  )
       171           N   tau( 171) = (   0.2201806   0.5621587   0.9168466  )
       172           N   tau( 172) = (   0.2957406   0.3038897   1.2575564  )
       173           N   tau( 173) = (   0.3025298   0.4755228   1.2459499  )
       174           N   tau( 174) = (   0.1666667   0.4811250   1.0497374  )
       175           O   tau( 175) = (   0.1809247   0.2814101   1.0948077  )
       176           Li  tau( 176) = (   0.4196957   0.3897717   1.3804186  )
       177           Li  tau( 177) = (   0.3094452   0.4847946   1.3881154  )
       178           Li  tau( 178) = (   0.2902366   0.3254069   1.3989038  )
       179           Li  tau( 179) = (   0.0644216   0.4999310   1.7926379  )
       180           Li  tau( 180) = (   0.1942699   0.4296168   1.7590630  )
       181           Li  tau( 181) = (   0.5627735   0.0081643   1.7877404  )
       182           Li  tau( 182) = (   0.2353498   0.3788601   1.5620265  )
       183           Li  tau( 183) = (   0.3935289   0.3194335   1.5398011  )
       184           Li  tau( 184) = (   0.3734115   0.5095686   1.5222101  )
       185           Li  tau( 185) = (   0.2774483   0.4980176   1.6297723  )
       186           Li  tau( 186) = (   0.0375403   0.4745018   1.5416654  )
       187           Li  tau( 187) = (   0.1076112   0.3962693   1.6292813  )
       188           Li  tau( 188) = (   0.1658894   0.2994686   1.4723885  )
       189           Li  tau( 189) = (   0.1872721   0.3004224   1.6953264  )
       190           Cr  tau( 190) = (   0.3402756   0.3926272   1.7163129  )
       191           Cr  tau( 191) = (   0.1727919   0.4853562   1.4474397  )
       192           N   tau( 192) = (   0.4375993   0.3945143   1.7460539  )
       193           N   tau( 193) = (   0.3344133   0.3803193   1.6121871  )
       194           N   tau( 194) = (   0.0730002   0.4832716   1.4094467  )
       195           N   tau( 195) = (   0.2247642   0.3960735   1.4270435  )
       196           N   tau( 196) = (   0.2187348   0.5665798   1.4161266  )
       197           N   tau( 197) = (   0.2860533   0.3061222   1.7499578  )
       198           N   tau( 198) = (   0.2909957   0.4767483   1.7456506  )
       199           N   tau( 199) = (   0.1726505   0.4962316   1.5523310  )
       200           O   tau( 200) = (   0.1613823   0.3039505   1.5913000  )
       201           Li  tau( 201) = (   0.9259927   0.0873080   0.8766270  )
       202           Li  tau( 202) = (   0.7947266   0.1809300   0.8766270  )
       203           Li  tau( 203) = (   0.7792805   0.0204373   0.8766270  )
       204           Li  tau( 204) = (   0.5745694   0.1924933   1.2894540  )
       205           Li  tau( 205) = (   0.7094659   0.1126466   1.2849540  )
       206           Li  tau( 206) = (   0.7256484   0.2655192   1.2811436  )
       207           Li  tau( 207) = (   0.7336608   0.0904568   1.0336250  )
       208           Li  tau( 208) = (   0.8881634   0.0127904   1.0336250  )
       209           Li  tau( 209) = (   0.8781757   0.1854282   1.0336250  )
       210           Li  tau( 210) = (   0.7610583   0.2007745   1.1262143  )
       211           Li  tau( 211) = (   0.6188519   0.2671690   1.1154026  )
       212           Li  tau( 212) = (   0.6301896   0.0954612   1.1181377  )
       213           Li  tau( 213) = (   0.6666690   0.0000000   0.9626942  )
       214           Li  tau( 214) = (   0.6559274   0.0108407   1.1968997  )
       215           Cr  tau( 215) = (   0.8282722   0.1012276   1.2018322  )
       216           Cr  tau( 216) = (   0.6666690   0.1924500   0.9478909  )
       217           N   tau( 217) = (   0.9281317   0.0944180   1.2463415  )
       218           N   tau( 218) = (   0.8252391   0.0957592   1.1058006  )
       219           N   tau( 219) = (   0.5697327   0.1982778   0.9168466  )
       220           N   tau( 220) = (   0.7100854   0.1055885   0.9168466  )
       221           N   tau( 221) = (   0.7201783   0.2734837   0.9168466  )
       222           N   tau( 222) = (   0.7749967   0.0238334   1.2386038  )
       223           N   tau( 223) = (   0.7853643   0.1786548   1.2304745  )
       224           N   tau( 224) = (   0.6666690   0.1924500   1.0497374  )
       225           O   tau( 225) = (   0.6655995   0.0029361   1.0796538  )
       226           Li  tau( 226) = (   0.9189038   0.0899326   1.3563991  )
       227           Li  tau( 227) = (   0.7991448   0.1773720   1.3798751  )
       228           Li  tau( 228) = (   0.7748506   0.0119589   1.3814414  )
       229           Li  tau( 229) = (   0.5848797   0.2060155   1.7810898  )
       230           Li  tau( 230) = (   0.7113828   0.1230895   1.7983418  )
       231           Li  tau( 231) = (   0.7323868   0.2756407   1.7679520  )
       232           Li  tau( 232) = (   0.7561726   0.1010780   1.5443420  )
       233           Li  tau( 233) = (   0.8842010   0.0294404   1.5394914  )
       234           Li  tau( 234) = (   0.8740731   0.1933348   1.5294627  )
       235           Li  tau( 235) = (   0.7741843   0.2011537   1.6244950  )
       236           Li  tau( 236) = (   0.6356422   0.2833983   1.6288372  )
       237           Li  tau( 237) = (   0.6286175   0.1112031   1.6362242  )
       238           Li  tau( 238) = (   0.5829651   0.0273338   1.5353245  )
       239           Li  tau( 239) = (   0.6566111   0.0075125   1.6987160  )
       240           Cr  tau( 240) = (   0.8434788   0.1049293   1.7280012  )
       241           Cr  tau( 241) = (   0.6735008   0.1962376   1.4548852  )
       242           N   tau( 242) = (   0.9371084   0.1003533   1.7617631  )
       243           N   tau( 243) = (   0.8406093   0.1062922   1.6295326  )
       244           N   tau( 244) = (   0.5815561   0.1913478   1.4186220  )
       245           N   tau( 245) = (   0.7165490   0.1152098   1.4156181  )
       246           N   tau( 246) = (   0.7211718   0.2784407   1.4132103  )
       247           N   tau( 247) = (   0.7868195   0.0292769   1.7680514  )
       248           N   tau( 248) = (   0.7944344   0.1926347   1.7437630  )
       249           N   tau( 249) = (   0.6732846   0.2026142   1.5697291  )
       250           O   tau( 250) = (   0.6700001   0.0037034   1.5927903  )
       251           Li  tau( 251) = (   0.7593284   0.3759836   0.8766270  )
       252           Li  tau( 252) = (   0.6280565   0.4696050   0.8766270  )
       253           Li  tau( 253) = (   0.6126161   0.3091127   0.8766270  )
       254           Li  tau( 254) = (   0.4223086   0.4940670   1.2902663  )
       255           Li  tau( 255) = (   0.5363911   0.3936692   1.2801384  )
       256           Li  tau( 256) = (   0.5473185   0.5648774   1.2849364  )
       257           Li  tau( 257) = (   0.5669941   0.3791318   1.0336250  )
       258           Li  tau( 258) = (   0.7214991   0.3014656   1.0336250  )
       259           Li  tau( 259) = (   0.7115055   0.4741032   1.0336250  )
       260           Li  tau( 260) = (   0.5962524   0.4923517   1.1192247  )
       261           Li  tau( 261) = (   0.4376040   0.5551591   1.1195637  )
       262           Li  tau( 262) = (   0.4687365   0.3878554   1.1121942  )
       263           Li  tau( 263) = (   0.5000000   0.2886750   0.9626942  )
       264           Li  tau( 264) = (   0.4971129   0.2889006   1.2026854  )
       265           Cr  tau( 265) = (   0.6657164   0.3920924   1.2190199  )
       266           Cr  tau( 266) = (   0.5000000   0.4811250   0.9478909  )
       267           N   tau( 267) = (   0.7658096   0.3821667   1.2390304  )
       268           N   tau( 268) = (   0.6614267   0.3953903   1.1113000  )
       269           N   tau( 269) = (   0.4030661   0.4869528   0.9168466  )
       270           N   tau( 270) = (   0.5434199   0.3942641   0.9168466  )
       271           N   tau( 271) = (   0.5535140   0.5621587   0.9168466  )
       272           N   tau( 272) = (   0.6147726   0.3046846   1.2454707  )
       273           N   tau( 273) = (   0.6229077   0.4713010   1.2567090  )
       274           N   tau( 274) = (   0.5000000   0.4811250   1.0497374  )
       275           O   tau( 275) = (   0.5229822   0.2855162   1.0705953  )
       276           Li  tau( 276) = (   0.7469855   0.3914741   1.3736511  )
       277           Li  tau( 277) = (   0.6337253   0.4902671   1.3755738  )
       278           Li  tau( 278) = (   0.6111317   0.3214708   1.3624945  )
       279           Li  tau( 279) = (   0.4030450   0.5092460   1.7849995  )
       280           Li  tau( 280) = (   0.5431610   0.4019861   1.7800612  )
       281           Li  tau( 281) = (   0.5605293   0.5725046   1.7912177  )
       282           Li  tau( 282) = (   0.5671928   0.3738463   1.5395031  )
       283           Li  tau( 283) = (   0.7335556   0.3004037   1.5356284  )
       284           Li  tau( 284) = (   0.6905015   0.4629175   1.5172776  )
       285           Li  tau( 285) = (   0.6276532   0.4973233   1.6290826  )
       286           Li  tau( 286) = (   0.4500375   0.5703727   1.6471587  )
       287           Li  tau( 287) = (   0.4423793   0.4078682   1.6066877  )
       288           Li  tau( 288) = (   0.4967103   0.2757921   1.4463936  )
       289           Li  tau( 289) = (   0.5071492   0.3092196   1.6924511  )
       290           Cr  tau( 290) = (   0.6708534   0.3940216   1.7098141  )
       291           Cr  tau( 291) = (   0.5111203   0.4851277   1.4510397  )
       292           N   tau( 292) = (   0.7709116   0.3786304   1.7399058  )
       293           N   tau( 293) = (   0.6720398   0.3915378   1.6045020  )
       294           N   tau( 294) = (   0.4137346   0.4949418   1.4078395  )
       295           N   tau( 295) = (   0.5501074   0.4006080   1.4191655  )
       296           N   tau( 296) = (   0.5598268   0.5659603   1.4124798  )
       297           N   tau( 297) = (   0.6149304   0.3160193   1.7426935  )
       298           N   tau( 298) = (   0.6289097   0.4765297   1.7370831  )
       299           N   tau( 299) = (   0.5066115   0.4896628   1.5500401  )
       300           O   tau( 300) = (   0.5001589   0.2935783   1.5693025  )

   Crystallographic axes

     site n.     atom                  positions (cryst. coord.)
         1           Li  tau(   1) = (  0.3097346  0.1512218  0.3321863  )
         2           Li  tau(   2) = (  0.2325188  0.3133799  0.3321863  )
         3           Li  tau(   3) = (  0.1244139  0.0353984  0.3321863  )
         4           Li  tau(   4) = (  0.0264152  0.3405454  0.4877624  )
         5           Li  tau(   5) = (  0.1064854  0.2025830  0.4874191  )
         6           Li  tau(   6) = (  0.2018745  0.4656676  0.4911817  )
         7           Li  tau(   7) = (  0.1192194  0.1566758  0.3916786  )
         8           Li  tau(   8) = (  0.2288830  0.0221536  0.3916786  )
         9           Li  tau(   9) = (  0.3185643  0.3211711  0.3916786  )
        10           Li  tau(  10) = (  0.2102478  0.3587911  0.4271362  )
        11           Li  tau(  11) = (  0.1003019  0.4852271  0.4251276  )
        12           Li  tau(  12) = (  0.0372780  0.1861037  0.4246138  )
        13           Li  tau(  13) = (  0.0000000  0.0000000  0.3648003  )
        14           Li  tau(  14) = (  0.0109233  0.0145650  0.4563819  )
        15           Cr  tau(  15) = (  0.2284888  0.1731024  0.4575578  )
        16           Cr  tau(  16) = (  0.1111111  0.3333332  0.3591908  )
        17           N   tau(  17) = (  0.3269453  0.1679714  0.4720057  )
        18           N   tau(  18) = (  0.2249706  0.1610173  0.4184639  )
        19           N   tau(  19) = (  0.0175419  0.3434273  0.3474270  )
        20           N   tau(  20) = (  0.1043816  0.1828847  0.3474270  )
        21           N   tau(  21) = (  0.2114100  0.4736876  0.3474270  )
        22           N   tau(  22) = (  0.1286115  0.0326572  0.4732857  )
        23           N   tau(  23) = (  0.2246256  0.3095506  0.4665578  )
        24           N   tau(  24) = (  0.1111111  0.3333332  0.3977842  )
        25           O   tau(  25) = (  0.0081684  0.0139308  0.4094373  )
        26           Li  tau(  26) = (  0.3089480  0.1473682  0.5193865  )
        27           Li  tau(  27) = (  0.2571310  0.3466391  0.5244291  )
        28           Li  tau(  28) = (  0.1310006  0.0600450  0.5236451  )
        29           Li  tau(  29) = (  0.0451821  0.3751479  0.6729850  )
        30           Li  tau(  30) = (  0.1348859  0.2076148  0.6838453  )
        31           Li  tau(  31) = (  0.2422406  0.4976767  0.6738841  )
        32           Li  tau(  32) = (  0.1228801  0.1533040  0.5775922  )
        33           Li  tau(  33) = (  0.2439567  0.0532346  0.5748971  )
        34           Li  tau(  34) = (  0.3264431  0.3424950  0.5871437  )
        35           Li  tau(  35) = (  0.2049665  0.3559912  0.6204597  )
        36           Li  tau(  36) = (  0.1064146  0.4717198  0.6048691  )
        37           Li  tau(  37) = (  0.0175325  0.1799553  0.6168544  )
        38           Li  tau(  38) = (  0.0017654  0.0252685  0.5563035  )
        39           Li  tau(  39) = (  0.0105376  0.0213604  0.6468287  )
        40           Cr  tau(  40) = (  0.2270568  0.1805637  0.6492714  )
        41           Cr  tau(  41) = (  0.1159576  0.3391465  0.5492523  )
        42           N   tau(  42) = (  0.3204134  0.1660046  0.6597729  )
        43           N   tau(  43) = (  0.2197642  0.1706538  0.6091122  )
        44           N   tau(  44) = (  0.0115670  0.3305100  0.5374109  )
        45           N   tau(  45) = (  0.1110434  0.1938169  0.5370898  )
        46           N   tau(  46) = (  0.2237726  0.4853729  0.5388991  )
        47           N   tau(  47) = (  0.1324741  0.0404475  0.6683721  )
        48           N   tau(  48) = (  0.2435081  0.3392821  0.6628866  )
        49           N   tau(  49) = (  0.0998951  0.3203208  0.5874161  )
        50           O   tau(  50) = (  0.0035435  0.0281137  0.6010733  )
        51           Li  tau(  51) = (  0.3097348  0.6512226  0.3321863  )
        52           Li  tau(  52) = (  0.2325186  0.8133797  0.3321863  )
        53           Li  tau(  53) = (  0.1244139  0.5353989  0.3321863  )
        54           Li  tau(  54) = (  0.0256827  0.8499894  0.4902316  )
        55           Li  tau(  55) = (  0.1077020  0.6937894  0.4823610  )
        56           Li  tau(  56) = (  0.2083361  0.9712549  0.4826246  )
        57           Li  tau(  57) = (  0.1192194  0.6566756  0.3916786  )
        58           Li  tau(  58) = (  0.2288831  0.5221537  0.3916786  )
        59           Li  tau(  59) = (  0.3185642  0.8211709  0.3916786  )
        60           Li  tau(  60) = (  0.2319766  0.8422690  0.4281283  )
        61           Li  tau(  61) = (  0.1145180  0.9970793  0.4279423  )
        62           Li  tau(  62) = (  0.0013662  0.6675035  0.4303982  )
        63           Li  tau(  63) = ( -0.0000001  0.4999998  0.3648003  )
        64           Li  tau(  64) = (  0.0034539  0.4939284  0.4532947  )
        65           Cr  tau(  65) = (  0.2224158  0.6562373  0.4586717  )
        66           Cr  tau(  66) = (  0.1111110  0.8333330  0.3591908  )
        67           N   tau(  67) = (  0.3128157  0.6382305  0.4747717  )
        68           N   tau(  68) = (  0.2208535  0.6634373  0.4174961  )
        69           N   tau(  69) = (  0.0175418  0.8434271  0.3474270  )
        70           N   tau(  70) = (  0.1043818  0.6828855  0.3474270  )
        71           N   tau(  71) = (  0.2114098  0.9736874  0.3474270  )
        72           N   tau(  72) = (  0.1174463  0.5349403  0.4687613  )
        73           N   tau(  73) = (  0.2245680  0.8078387  0.4690559  )
        74           N   tau(  74) = (  0.1111110  0.8333330  0.3977842  )
        75           O   tau(  75) = (  0.0014807  0.4983812  0.4105867  )
        76           Li  tau(  76) = (  0.3209634  0.6633310  0.5239773  )
        77           Li  tau(  77) = (  0.2214222  0.8025892  0.5170324  )
        78           Li  tau(  78) = (  0.1081812  0.5213743  0.5161975  )
        79           Li  tau(  79) = (  0.0393954  0.8604489  0.6747146  )
        80           Li  tau(  80) = (  0.1056432  0.6993861  0.6753613  )
        81           Li  tau(  81) = (  0.2330346 -0.0015807  0.6749028  )
        82           Li  tau(  82) = (  0.1245570  0.6697203  0.5867738  )
        83           Li  tau(  83) = (  0.2390276  0.4930153  0.5814057  )
        84           Li  tau(  84) = (  0.2143476  0.6608652  0.5602255  )
        85           Li  tau(  85) = (  0.2201423  0.8652894  0.6186416  )
        86           Li  tau(  86) = (  0.1072672  0.0054654  0.6075421  )
        87           Li  tau(  87) = (  0.0260626  0.7067258  0.6115704  )
        88           Li  tau(  88) = (  0.9962015  0.4877456  0.5515621  )
        89           Li  tau(  89) = (  0.0134870  0.5210068  0.6361788  )
        90           Cr  tau(  90) = (  0.2249265  0.6974942  0.6479160  )
        91           Cr  tau(  91) = (  0.1067579  0.8321395  0.5494804  )
        92           N   tau(  92) = (  0.3210723  0.6870023  0.6607340  )
        93           N   tau(  93) = (  0.2245778  0.6891422  0.6086870  )
        94           N   tau(  94) = (  0.0219165  0.8579871  0.5378539  )
        95           N   tau(  95) = (  0.1023805  0.6792820  0.5360778  )
        96           N   tau(  96) = (  0.2070723  0.9615779  0.5399466  )
        97           N   tau(  97) = (  0.1191364  0.5523185  0.6559106  )
        98           N   tau(  98) = (  0.2288065  0.8427934  0.6624149  )
        99           N   tau(  99) = (  0.1032491  0.8397192  0.5883927  )
       100           O   tau( 100) = (  0.0097881  0.5076959  0.5956343  )
       101           Li  tau( 101) = (  0.6430655  0.1512218  0.3321863  )
       102           Li  tau( 102) = (  0.5658521  0.3133799  0.3321863  )
       103           Li  tau( 103) = (  0.4577472  0.0353984  0.3321863  )
       104           Li  tau( 104) = (  0.3905749  0.3476655  0.4880148  )
       105           Li  tau( 105) = (  0.4506715  0.2063981  0.4849765  )
       106           Li  tau( 106) = (  0.5498136  0.4779744  0.4914054  )
       107           Li  tau( 107) = (  0.4525527  0.1566758  0.3916786  )
       108           Li  tau( 108) = (  0.5622164  0.0221536  0.3916786  )
       109           Li  tau( 109) = (  0.6518976  0.3211711  0.3916786  )
       110           Li  tau( 110) = (  0.5485478  0.3455722  0.4282878  )
       111           Li  tau( 111) = (  0.4163111  0.4426381  0.4287440  )
       112           Li  tau( 112) = (  0.3476053  0.1639518  0.4292267  )
       113           Li  tau( 113) = (  0.3333333  0.0000000  0.3648003  )
       114           Li  tau( 114) = (  0.3306369  0.0068361  0.4552148  )
       115           Cr  tau( 115) = (  0.5568494  0.1716580  0.4588245  )
       116           Cr  tau( 116) = (  0.4444444  0.3333332  0.3591908  )
       117           N   tau( 117) = (  0.6409768  0.1531785  0.4768933  )
       118           N   tau( 118) = (  0.5544115  0.1592722  0.4194516  )
       119           N   tau( 119) = (  0.3508752  0.3434273  0.3474270  )
       120           N   tau( 120) = (  0.4377148  0.1828847  0.3474270  )
       121           N   tau( 121) = (  0.5447432  0.4736876  0.3474270  )
       122           N   tau( 122) = (  0.4461564  0.0348828  0.4753608  )
       123           N   tau( 123) = (  0.5817409  0.3337604  0.4711509  )
       124           N   tau( 124) = (  0.4444444  0.3333332  0.3977842  )
       125           O   tau( 125) = (  0.3303546  0.9964183  0.4108391  )
       126           Li  tau( 126) = (  0.6685058  0.1538708  0.5255430  )
       127           Li  tau( 127) = (  0.5550895  0.2711249  0.5228723  )
       128           Li  tau( 128) = (  0.4589215  0.0159870  0.5184475  )
       129           Li  tau( 129) = (  0.3682657  0.3668860  0.6739395  )
       130           Li  tau( 130) = (  0.4410698  0.2038776  0.6713640  )
       131           Li  tau( 131) = (  0.5717579  0.4929961  0.6755185  )
       132           Li  tau( 132) = (  0.4430630  0.1271669  0.5785268  )
       133           Li  tau( 133) = (  0.4395318  0.9674712  0.6150473  )
       134           Li  tau( 134) = (  0.6783136  0.3523745  0.5903526  )
       135           Li  tau( 135) = (  0.5467302  0.3438909  0.6113002  )
       136           Li  tau( 136) = (  0.4588003  0.4805759  0.6191310  )
       137           Li  tau( 137) = (  0.3600521  0.1592124  0.6183847  )
       138           Li  tau( 138) = (  0.3192543  0.9726114  0.5506054  )
       139           Li  tau( 139) = (  0.3487393  0.0050621  0.6444613  )
       140           Cr  tau( 140) = (  0.5664620  0.1780735  0.6478806  )
       141           Cr  tau( 141) = (  0.4412996  0.3209585  0.5524081  )
       142           N   tau( 142) = (  0.6640237  0.1832390  0.6639783  )
       143           N   tau( 143) = (  0.5647184  0.1660016  0.6113623  )
       144           N   tau( 144) = (  0.3579211  0.3508197  0.5453790  )
       145           N   tau( 145) = (  0.4273402  0.1804300  0.5339296  )
       146           N   tau( 146) = (  0.5341339  0.4714758  0.5390896  )
       147           N   tau( 147) = (  0.4613265  0.0276571  0.6607473  )
       148           N   tau( 148) = (  0.5738334  0.3297742  0.6585438  )
       149           N   tau( 149) = (  0.4380667  0.3011419  0.5924941  )
       150           O   tau( 150) = (  0.3237708  0.9897375  0.5987037  )
       151           Li  tau( 151) = (  0.6430682  0.6512226  0.3321863  )
       152           Li  tau( 152) = (  0.5658520  0.8133797  0.3321863  )
       153           Li  tau( 153) = (  0.4577474  0.5353989  0.3321863  )
       154           Li  tau( 154) = (  0.3557930  0.8345750  0.4836787  )
       155           Li  tau( 155) = (  0.4223143  0.6886776  0.4935402  )
       156           Li  tau( 156) = (  0.5497050  0.9555470  0.4942533  )
       157           Li  tau( 157) = (  0.4525527  0.6566756  0.3916786  )
       158           Li  tau( 158) = (  0.5622164  0.5221537  0.3916786  )
       159           Li  tau( 159) = (  0.6518976  0.8211709  0.3916786  )
       160           Li  tau( 160) = (  0.5608538  0.8465083  0.4260289  )
       161           Li  tau( 161) = (  0.4337878  0.9697214  0.4243746  )
       162           Li  tau( 162) = (  0.3705495  0.6827236  0.4285712  )
       163           Li  tau( 163) = (  0.3333333  0.4999998  0.3648003  )
       164           Li  tau( 164) = (  0.3289779  0.5010070  0.4560519  )
       165           Cr  tau( 165) = (  0.5645257  0.6688650  0.4602684  )
       166           Cr  tau( 166) = (  0.4444443  0.8333330  0.3591908  )
       167           N   tau( 167) = (  0.6575671  0.6472151  0.4744395  )
       168           N   tau( 168) = (  0.5630273  0.6726487  0.4203640  )
       169           N   tau( 169) = (  0.3508751  0.8434271  0.3474270  )
       170           N   tau( 170) = (  0.4377151  0.6828855  0.3474270  )
       171           N   tau( 171) = (  0.5447431  0.9736874  0.3474270  )
       172           N   tau( 172) = (  0.4711915  0.5263525  0.4765345  )
       173           N   tau( 173) = (  0.5770730  0.8236296  0.4721363  )
       174           N   tau( 174) = (  0.4444443  0.8333330  0.3977842  )
       175           O   tau( 175) = (  0.3433969  0.4874166  0.4148630  )
       176           Li  tau( 176) = (  0.6447305  0.6751044  0.5230915  )
       177           Li  tau( 177) = (  0.5893415  0.8396888  0.5260081  )
       178           Li  tau( 178) = (  0.4781103  0.5636212  0.5300962  )
       179           Li  tau( 179) = (  0.3530569  0.8659059  0.6792966  )
       180           Li  tau( 180) = (  0.4423092  0.7441181  0.6665738  )
       181           Li  tau( 181) = (  0.5674871  0.0141409  0.6774407  )
       182           Li  tau( 182) = (  0.4540847  0.6562049  0.5919094  )
       183           Li  tau( 183) = (  0.5779540  0.5532751  0.5834874  )
       184           Li  tau( 184) = (  0.6676111  0.8825988  0.5768215  )
       185           Li  tau( 185) = (  0.5649790  0.8625918  0.6175808  )
       186           Li  tau( 186) = (  0.3114940  0.8218612  0.5841938  )
       187           Li  tau( 187) = (  0.3363974  0.6863585  0.6173948  )
       188           Li  tau( 188) = (  0.3387877  0.5186949  0.5579423  )
       189           Li  tau( 189) = (  0.3607210  0.5203469  0.6424217  )
       190           Cr  tau( 190) = (  0.5669590  0.6800502  0.6503742  )
       191           Cr  tau( 191) = (  0.4530125  0.8406616  0.5484883  )
       192           N   tau( 192) = (  0.6653722  0.6833188  0.6616442  )
       193           N   tau( 193) = (  0.5539908  0.6587324  0.6109171  )
       194           N   tau( 194) = (  0.3520172  0.8370509  0.5340913  )
       195           N   tau( 195) = (  0.4534374  0.6860194  0.5407594  )
       196           N   tau( 196) = (  0.5458498  0.9813450  0.5366226  )
       197           N   tau( 197) = (  0.4627931  0.5302192  0.6631235  )
       198           N   tau( 198) = (  0.5662465  0.8257523  0.6614914  )
       199           N   tau( 199) = (  0.4591500  0.8594984  0.5882354  )
       200           O   tau( 200) = (  0.3368683  0.5264578  0.6030022  )
       201           Li  tau( 201) = (  0.9764000  0.1512218  0.3321863  )
       202           Li  tau( 202) = (  0.8991866  0.3133799  0.3321863  )
       203           Li  tau( 203) = (  0.7910799  0.0353984  0.3321863  )
       204           Li  tau( 204) = (  0.6857054  0.3334081  0.4886216  )
       205           Li  tau( 205) = (  0.7745024  0.1951096  0.4869164  )
       206           Li  tau( 206) = (  0.8789460  0.4598927  0.4854725  )
       207           Li  tau( 207) = (  0.7858861  0.1566758  0.3916786  )
       208           Li  tau( 208) = (  0.8955479  0.0221536  0.3916786  )
       209           Li  tau( 209) = (  0.9852327  0.3211711  0.3916786  )
       210           Li  tau( 210) = (  0.8769755  0.3477516  0.4267641  )
       211           Li  tau( 211) = (  0.7731020  0.4627503  0.4226672  )
       212           Li  tau( 212) = (  0.6853041  0.1653436  0.4237036  )
       213           Li  tau( 213) = (  0.6666690  0.0000000  0.3648003  )
       214           Li  tau( 214) = (  0.6621863  0.0187767  0.4535494  )
       215           Cr  tau( 215) = (  0.8867160  0.1753314  0.4554185  )
       216           Cr  tau( 216) = (  0.7777800  0.3333332  0.3591908  )
       217           N   tau( 217) = (  0.9826440  0.1635367  0.4722847  )
       218           N   tau( 218) = (  0.8805257  0.1658598  0.4190286  )
       219           N   tau( 219) = (  0.6842085  0.3434273  0.3474270  )
       220           N   tau( 220) = (  0.7710469  0.1828847  0.3474270  )
       221           N   tau( 221) = (  0.8780741  0.4736876  0.3474270  )
       222           N   tau( 222) = (  0.7887569  0.0412806  0.4693526  )
       223           N   tau( 223) = (  0.8885107  0.3094392  0.4662722  )
       224           N   tau( 224) = (  0.7777800  0.3333332  0.3977842  )
       225           O   tau( 225) = (  0.6672946  0.0050854  0.4091206  )
       226           Li  tau( 226) = (  0.9708264  0.1557678  0.5139896  )
       227           Li  tau( 227) = (  0.9015506  0.3072174  0.5228855  )
       228           Li  tau( 228) = (  0.7817551  0.0207135  0.5234791  )
       229           Li  tau( 229) = (  0.7038228  0.3568293  0.6749206  )
       230           Li  tau( 230) = (  0.7824486  0.2131973  0.6814580  )
       231           Li  tau( 231) = (  0.8915280  0.4774238  0.6699422  )
       232           Li  tau( 232) = (  0.8145300  0.1750723  0.5852081  )
       233           Li  tau( 233) = (  0.9011984  0.0509923  0.5833700  )
       234           Li  tau( 234) = (  0.9856950  0.3348657  0.5795698  )
       235           Li  tau( 235) = (  0.8903205  0.3484085  0.6155810  )
       236           Li  tau( 236) = (  0.7992623  0.4908603  0.6172265  )
       237           Li  tau( 237) = (  0.6928206  0.1926093  0.6200257  )
       238           Li  tau( 238) = (  0.5987463  0.0473436  0.5817910  )
       239           Li  tau( 239) = (  0.6609485  0.0130121  0.6437061  )
       240           Cr  tau( 240) = (  0.9040597  0.1817429  0.6548034  )
       241           Cr  tau( 241) = (  0.7867987  0.3398935  0.5513096  )
       242           N   tau( 242) = (  0.9950474  0.1738171  0.6675970  )
       243           N   tau( 243) = (  0.9019771  0.1841035  0.6174900  )
       244           N   tau( 244) = (  0.6920308  0.3314241  0.5375682  )
       245           N   tau( 245) = (  0.7830655  0.1995493  0.5364299  )
       246           N   tau( 246) = (  0.8819296  0.4822734  0.5355175  )
       247           N   tau( 247) = (  0.8037225  0.0507092  0.6699798  )
       248           N   tau( 248) = (  0.9056521  0.3336531  0.6607761  )
       249           N   tau( 249) = (  0.7902639  0.3509381  0.5948282  )
       250           O   tau( 250) = (  0.6721383  0.0064144  0.6035670  )
       251           Li  tau( 251) = (  0.9764026  0.6512226  0.3321863  )
       252           Li  tau( 252) = (  0.8991830  0.8133797  0.3321863  )
       253           Li  tau( 253) = (  0.7910824  0.5353989  0.3321863  )
       254           Li  tau( 254) = (  0.7075583  0.8557491  0.4889295  )
       255           Li  tau( 255) = (  0.7636761  0.6818551  0.4850916  )
       256           Li  tau( 256) = (  0.8734506  0.9783963  0.4869098  )
       257           Li  tau( 257) = (  0.7858860  0.6566756  0.3916786  )
       258           Li  tau( 258) = (  0.8955503  0.5221537  0.3916786  )
       259           Li  tau( 259) = (  0.9852291  0.8211709  0.3916786  )
       260           Li  tau( 260) = (  0.8805118  0.8527781  0.4241155  )
       261           Li  tau( 261) = (  0.7581252  0.9615637  0.4242439  )
       262           Li  tau( 262) = (  0.6926650  0.6717853  0.4214514  )
       263           Li  tau( 263) = (  0.6666666  0.4999998  0.3648003  )
       264           Li  tau( 264) = (  0.6639098  0.5003905  0.4557418  )
       265           Cr  tau( 265) = (  0.8920910  0.6791240  0.4619316  )
       266           Cr  tau( 266) = (  0.7777776  0.8333330  0.3591908  )
       267           N   tau( 267) = (  0.9864537  0.6619321  0.4695143  )
       268           N   tau( 268) = (  0.8897054  0.6848361  0.4211125  )
       269           N   tau( 269) = (  0.6842084  0.8434271  0.3474270  )
       270           N   tau( 270) = (  0.7710484  0.6828855  0.3474270  )
       271           N   tau( 271) = (  0.8780764  0.9736874  0.3474270  )
       272           N   tau( 272) = (  0.7906824  0.5277291  0.4719548  )
       273           N   tau( 273) = (  0.8950135  0.8163172  0.4762134  )
       274           N   tau( 274) = (  0.7777776  0.8333330  0.3977842  )
       275           O   tau( 275) = (  0.6878251  0.4945286  0.4056880  )
       276           Li  tau( 276) = (  0.9730032  0.6780531  0.5205270  )
       277           Li  tau( 277) = (  0.9167811  0.8491675  0.5212556  )
       278           Li  tau( 278) = (  0.7967330  0.5568038  0.5162994  )
       279           Li  tau( 279) = (  0.6970584  0.8820400  0.6764021  )
       280           Li  tau( 280) = (  0.7752477  0.6962603  0.6745308  )
       281           Li  tau( 281) = (  0.8910650  0.9916071  0.6787584  )
       282           Li  tau( 282) = (  0.7830331  0.6475208  0.5833745  )
       283           Li  tau( 283) = (  0.9069938  0.5203145  0.5819062  )
       284           Li  tau( 284) = (  0.9577671  0.8017966  0.5749524  )
       285           Li  tau( 285) = (  0.9147830  0.8613893  0.6173195  )
       286           Li  tau( 286) = (  0.7793423  0.9879144  0.6241691  )
       287           Li  tau( 287) = (  0.6778621  0.7064485  0.6088332  )
       288           Li  tau( 288) = (  0.6559389  0.4776859  0.5480918  )
       289           Li  tau( 289) = (  0.6856772  0.5355841  0.6413321  )
       290           Cr  tau( 290) = (  0.8983419  0.6824655  0.6479116  )
       291           Cr  tau( 291) = (  0.7912089  0.8402658  0.5498524  )
       292           N   tau( 292) = (  0.9895139  0.6558071  0.6593145  )
       293           N   tau( 293) = (  0.8980942  0.6781634  0.6080050  )
       294           N   tau( 294) = (  0.6994894  0.8572644  0.5334823  )
       295           N   tau( 295) = (  0.7813985  0.6938734  0.5377741  )
       296           N   tau( 296) = (  0.8865842  0.9802720  0.5352407  )
       297           N   tau( 297) = (  0.7973843  0.5473616  0.6603708  )
       298           N   tau( 298) = (  0.9040343  0.8253737  0.6582448  )
       299           N   tau( 299) = (  0.7893184  0.8481208  0.5873673  )
       300           O   tau( 300) = (  0.6696564  0.5084925  0.5946666  )

     number of k points=     1  Gaussian smearing, width (Ry)=  0.0147
                       cart. coord. in units 2pi/alat
        k(    1) = (   0.0000000   0.0000000   0.0000000), wk =   2.0000000

                       cryst. coord.
        k(    1) = (   0.0000000   0.0000000   0.0000000), wk =   2.0000000

     Dense  grid:  5457965 G-vectors     FFT dimensions: ( 240, 160, 640)

     Smooth grid:  2970742 G-vectors     FFT dimensions: ( 200, 135, 540)

     Dynamical RAM for                 wfc:    1182.84 MB

     Dynamical RAM for     wfc (w. buffer):    1182.84 MB

     Dynamical RAM for           str. fact:      83.28 MB

     Dynamical RAM for           local pot:       0.00 MB

     Dynamical RAM for          nlocal pot:    3977.76 MB

     Dynamical RAM for                qrad:       7.46 MB

     Dynamical RAM for          rho,v,vnew:     203.09 MB

     Dynamical RAM for               rhoin:      67.70 MB

     Dynamical RAM for            rho*nmix:     333.13 MB

     Dynamical RAM for           G-vectors:      83.74 MB

     Dynamical RAM for          h,s,v(r/c):      63.83 MB

     Dynamical RAM for          <psi|beta>:      17.89 MB

     Dynamical RAM for                 psi:    2365.69 MB

     Dynamical RAM for                hpsi:    2365.69 MB

     Dynamical RAM for                spsi:    2365.69 MB

     Dynamical RAM for      wfcinit/wfcrot:    4336.08 MB

     Dynamical RAM for           addusdens:    7370.47 MB

     Dynamical RAM for          addusforce:   14335.60 MB

     Dynamical RAM for         addusstress:    4184.93 MB

     Estimated static dynamical RAM per process >       5.81 GB

     Estimated max dynamical RAM per process >      20.13 GB

     Estimated total dynamical RAM >      80.52 GB

     Check: negative core charge=   -0.000002

     Initial potential from superposition of free atoms

     starting charge    1292.2742, renormalised to    1392.0000

     negative rho (up, down):  2.523E-02 0.000E+00
     Starting wfcs are 1512 randomized atomic wfcs
     Checking if some PAW data can be deallocated... 

     total cpu time spent up to now is       34.7 secs

     per-process dynamical memory:  1708.5 Mb

     Self-consistent Calculation
[tb_dev] Currently allocated     1.26E+02 Mbytes, locked:    0 /  11
[tb_pin] Currently allocated     0.00E+00 Mbytes, locked:    0 /   0

     iteration #  1     ecut=    90.00 Ry     beta= 0.20
     Davidson diagonalization with overlap

---- Real-time Memory Report at c_bands before calling an iterative solver
         10172 MiB given to the printing process from OS
          1746 MiB allocation reported by mallinfo(arena+hblkhd)
        465845 MiB available memory on the node where the printing process lives
     GPU memory used/free/total (MiB): 16367 / 48601 / 64969
------------------
     ethr =  1.00E-02,  avg # of iterations =  3.0

     negative rho (up, down):  4.200E-02 0.000E+00

     total cpu time spent up to now is       38.5 secs

     total energy              =   -9071.82191990 Ry
     estimated scf accuracy    <     236.91112796 Ry
[tb_dev] Currently allocated     2.41E+01 Mbytes, locked:    0 /   6
[tb_pin] Currently allocated     0.00E+00 Mbytes, locked:    0 /   0

     iteration #  2     ecut=    90.00 Ry     beta= 0.20
     Davidson diagonalization with overlap

---- Real-time Memory Report at c_bands before calling an iterative solver
         10502 MiB given to the printing process from OS
          2013 MiB allocation reported by mallinfo(arena+hblkhd)
        464879 MiB available memory on the node where the printing process lives
     GPU memory used/free/total (MiB): 31249 / 33719 / 64969
------------------
     ethr =  1.00E-02,  avg # of iterations =  3.0

     negative rho (up, down):  7.790E-02 0.000E+00

     total cpu time spent up to now is       42.3 secs

     total energy              =   -9054.46676124 Ry
     estimated scf accuracy    <      61.39111200 Ry
[tb_dev] Currently allocated     2.41E+01 Mbytes, locked:    0 /   6
[tb_pin] Currently allocated     0.00E+00 Mbytes, locked:    0 /   0

     iteration #  3     ecut=    90.00 Ry     beta= 0.20
     Davidson diagonalization with overlap

---- Real-time Memory Report at c_bands before calling an iterative solver
         10537 MiB given to the printing process from OS
         -2047 MiB allocation reported by mallinfo(arena+hblkhd)
        464761 MiB available memory on the node where the printing process lives
     GPU memory used/free/total (MiB): 31249 / 33719 / 64969
------------------
     ethr =  4.41E-03,  avg # of iterations =  7.0

     negative rho (up, down):  6.419E-02 0.000E+00

     total cpu time spent up to now is       47.9 secs

     total energy              =   -9138.43069689 Ry
     estimated scf accuracy    <     834.73805570 Ry
[tb_dev] Currently allocated     2.41E+01 Mbytes, locked:    0 /   6
[tb_pin] Currently allocated     0.00E+00 Mbytes, locked:    0 /   0

     iteration #  4     ecut=    90.00 Ry     beta= 0.20
     Davidson diagonalization with overlap

---- Real-time Memory Report at c_bands before calling an iterative solver
         10540 MiB given to the printing process from OS
         -2024 MiB allocation reported by mallinfo(arena+hblkhd)
        464533 MiB available memory on the node where the printing process lives
     GPU memory used/free/total (MiB): 31249 / 33719 / 64969
------------------
     ethr =  4.41E-03,  avg # of iterations =  1.0

     negative rho (up, down):  4.902E-02 0.000E+00

     total cpu time spent up to now is       51.2 secs

     total energy              =   -9095.51415419 Ry
     estimated scf accuracy    <    1085.26216156 Ry
[tb_dev] Currently allocated     2.41E+01 Mbytes, locked:    0 /   6
[tb_pin] Currently allocated     0.00E+00 Mbytes, locked:    0 /   0

     iteration #  5     ecut=    90.00 Ry     beta= 0.20
     Davidson diagonalization with overlap

---- Real-time Memory Report at c_bands before calling an iterative solver
         10564 MiB given to the printing process from OS
         -2000 MiB allocation reported by mallinfo(arena+hblkhd)
        464581 MiB available memory on the node where the printing process lives
     GPU memory used/free/total (MiB): 31249 / 33719 / 64969
------------------
     ethr =  4.41E-03,  avg # of iterations =  2.0

     negative rho (up, down):  4.242E-02 0.000E+00

     total cpu time spent up to now is       54.6 secs

     total energy              =   -9093.63227638 Ry
     estimated scf accuracy    <     184.43263975 Ry
[tb_dev] Currently allocated     2.41E+01 Mbytes, locked:    0 /   6
[tb_pin] Currently allocated     0.00E+00 Mbytes, locked:    0 /   0

     iteration #  6     ecut=    90.00 Ry     beta= 0.20
     Davidson diagonalization with overlap

---- Real-time Memory Report at c_bands before calling an iterative solver
         10587 MiB given to the printing process from OS
         -1977 MiB allocation reported by mallinfo(arena+hblkhd)
        464345 MiB available memory on the node where the printing process lives
     GPU memory used/free/total (MiB): 31249 / 33719 / 64969
------------------
     ethr =  4.41E-03,  avg # of iterations =  2.0

     negative rho (up, down):  3.417E-02 0.000E+00

     total cpu time spent up to now is       58.0 secs

     total energy              =   -9091.46300601 Ry
     estimated scf accuracy    <      27.25948436 Ry
[tb_dev] Currently allocated     2.41E+01 Mbytes, locked:    0 /   6
[tb_pin] Currently allocated     0.00E+00 Mbytes, locked:    0 /   0

     iteration #  7     ecut=    90.00 Ry     beta= 0.20
     Davidson diagonalization with overlap

---- Real-time Memory Report at c_bands before calling an iterative solver
         10611 MiB given to the printing process from OS
         -1953 MiB allocation reported by mallinfo(arena+hblkhd)
        464393 MiB available memory on the node where the printing process lives
     GPU memory used/free/total (MiB): 31249 / 33719 / 64969
------------------
     ethr =  1.96E-03,  avg # of iterations =  2.0

     negative rho (up, down):  2.366E-02 0.000E+00

     total cpu time spent up to now is       61.6 secs

     total energy              =   -9107.55960832 Ry
     estimated scf accuracy    <      20.45613556 Ry
[tb_dev] Currently allocated     2.41E+01 Mbytes, locked:    0 /   6
[tb_pin] Currently allocated     0.00E+00 Mbytes, locked:    0 /   0

     iteration #  8     ecut=    90.00 Ry     beta= 0.20
     Davidson diagonalization with overlap

---- Real-time Memory Report at c_bands before calling an iterative solver
         10634 MiB given to the printing process from OS
         -1930 MiB allocation reported by mallinfo(arena+hblkhd)
        464157 MiB available memory on the node where the printing process lives
     GPU memory used/free/total (MiB): 31249 / 33719 / 64969
------------------
     ethr =  1.47E-03,  avg # of iterations =  7.0

     negative rho (up, down):  3.176E-02 0.000E+00

     total cpu time spent up to now is       66.2 secs

     total energy              =   -9087.06105044 Ry
     estimated scf accuracy    <     110.20661971 Ry
[tb_dev] Currently allocated     2.41E+01 Mbytes, locked:    0 /   6
[tb_pin] Currently allocated     0.00E+00 Mbytes, locked:    0 /   0

     iteration #  9     ecut=    90.00 Ry     beta= 0.20
     Davidson diagonalization with overlap

---- Real-time Memory Report at c_bands before calling an iterative solver
         10658 MiB given to the printing process from OS
         -1906 MiB allocation reported by mallinfo(arena+hblkhd)
        464062 MiB available memory on the node where the printing process lives
     GPU memory used/free/total (MiB): 31595 / 33373 / 64969
------------------
     ethr =  1.47E-03,  avg # of iterations =  5.0

     negative rho (up, down):  3.403E-02 0.000E+00

     total cpu time spent up to now is       70.9 secs

     total energy              =   -9095.24687063 Ry
     estimated scf accuracy    <       3.76633844 Ry
[tb_dev] Currently allocated     2.41E+01 Mbytes, locked:    0 /   6
[tb_pin] Currently allocated     0.00E+00 Mbytes, locked:    0 /   0

     iteration # 10     ecut=    90.00 Ry     beta= 0.20
     Davidson diagonalization with overlap

---- Real-time Memory Report at c_bands before calling an iterative solver
         10681 MiB given to the printing process from OS
         -1883 MiB allocation reported by mallinfo(arena+hblkhd)
        464016 MiB available memory on the node where the printing process lives
     GPU memory used/free/total (MiB): 31595 / 33373 / 64969
------------------
     ethr =  2.71E-04,  avg # of iterations = 13.0

     negative rho (up, down):  3.303E-02 0.000E+00

     total cpu time spent up to now is       76.2 secs

     total energy              =   -9095.82033412 Ry
     estimated scf accuracy    <       5.14022899 Ry
[tb_dev] Currently allocated     2.41E+01 Mbytes, locked:    0 /   6
[tb_pin] Currently allocated     0.00E+00 Mbytes, locked:    0 /   0

     iteration # 11     ecut=    90.00 Ry     beta= 0.20
     Davidson diagonalization with overlap

---- Real-time Memory Report at c_bands before calling an iterative solver
         10681 MiB given to the printing process from OS
         -1883 MiB allocation reported by mallinfo(arena+hblkhd)
        463921 MiB available memory on the node where the printing process lives
     GPU memory used/free/total (MiB): 31773 / 33195 / 64969
------------------
     ethr =  2.71E-04,  avg # of iterations =  1.0

     negative rho (up, down):  3.398E-02 0.000E+00

     total cpu time spent up to now is       79.6 secs

     total energy              =   -9096.09775179 Ry
     estimated scf accuracy    <       0.67038624 Ry
[tb_dev] Currently allocated     2.41E+01 Mbytes, locked:    0 /   6
[tb_pin] Currently allocated     0.00E+00 Mbytes, locked:    0 /   0

     iteration # 12     ecut=    90.00 Ry     beta= 0.20
     Davidson diagonalization with overlap

---- Real-time Memory Report at c_bands before calling an iterative solver
         10681 MiB given to the printing process from OS
         -1883 MiB allocation reported by mallinfo(arena+hblkhd)
        463920 MiB available memory on the node where the printing process lives
     GPU memory used/free/total (MiB): 31773 / 33195 / 64969
------------------
     ethr =  4.82E-05,  avg # of iterations =  2.0

     negative rho (up, down):  3.700E-02 0.000E+00

     total cpu time spent up to now is       83.2 secs

     total energy              =   -9095.93362389 Ry
     estimated scf accuracy    <       0.75644170 Ry
[tb_dev] Currently allocated     2.41E+01 Mbytes, locked:    0 /   6
[tb_pin] Currently allocated     0.00E+00 Mbytes, locked:    0 /   0

     iteration # 13     ecut=    90.00 Ry     beta= 0.20
     Davidson diagonalization with overlap

---- Real-time Memory Report at c_bands before calling an iterative solver
         10681 MiB given to the printing process from OS
         -1883 MiB allocation reported by mallinfo(arena+hblkhd)
        463921 MiB available memory on the node where the printing process lives
     GPU memory used/free/total (MiB): 31773 / 33195 / 64969
------------------
     ethr =  4.82E-05,  avg # of iterations = 20.0

     negative rho (up, down):  3.691E-02 0.000E+00

     total cpu time spent up to now is       88.1 secs

     total energy              =   -9095.98713520 Ry
     estimated scf accuracy    <       0.22232309 Ry
[tb_dev] Currently allocated     2.41E+01 Mbytes, locked:    0 /   6
[tb_pin] Currently allocated     0.00E+00 Mbytes, locked:    0 /   0

     iteration # 14     ecut=    90.00 Ry     beta= 0.20
     Davidson diagonalization with overlap

---- Real-time Memory Report at c_bands before calling an iterative solver
         10681 MiB given to the printing process from OS
         -1883 MiB allocation reported by mallinfo(arena+hblkhd)
        463919 MiB available memory on the node where the printing process lives
     GPU memory used/free/total (MiB): 31775 / 33193 / 64969
------------------
     c_bands:  3 eigenvalues not converged
     ethr =  1.60E-05,  avg # of iterations = 20.0

     negative rho (up, down):  3.821E-02 0.000E+00

     total cpu time spent up to now is       93.4 secs

     total energy              =   -9095.95996221 Ry
     estimated scf accuracy    <       0.77167905 Ry
[tb_dev] Currently allocated     2.41E+01 Mbytes, locked:    0 /   6
[tb_pin] Currently allocated     0.00E+00 Mbytes, locked:    0 /   0

     iteration # 15     ecut=    90.00 Ry     beta= 0.20
     Davidson diagonalization with overlap

---- Real-time Memory Report at c_bands before calling an iterative solver
         10682 MiB given to the printing process from OS
         -1883 MiB allocation reported by mallinfo(arena+hblkhd)
        463967 MiB available memory on the node where the printing process lives
     GPU memory used/free/total (MiB): 31797 / 33171 / 64969
------------------
     ethr =  1.60E-05,  avg # of iterations =  2.0

     negative rho (up, down):  3.876E-02 0.000E+00

     total cpu time spent up to now is       96.9 secs

     total energy              =   -9095.98826920 Ry
     estimated scf accuracy    <       0.08668877 Ry
[tb_dev] Currently allocated     2.41E+01 Mbytes, locked:    0 /   6
[tb_pin] Currently allocated     0.00E+00 Mbytes, locked:    0 /   0

     iteration # 16     ecut=    90.00 Ry     beta= 0.20
     Davidson diagonalization with overlap

---- Real-time Memory Report at c_bands before calling an iterative solver
         10682 MiB given to the printing process from OS
         -1883 MiB allocation reported by mallinfo(arena+hblkhd)
        463967 MiB available memory on the node where the printing process lives
     GPU memory used/free/total (MiB): 31797 / 33171 / 64969
------------------
     ethr =  6.23E-06,  avg # of iterations = 36.0

     negative rho (up, down):  3.923E-02 0.000E+00

     total cpu time spent up to now is      103.7 secs

     total energy              =   -9095.99484228 Ry
     estimated scf accuracy    <       0.01625111 Ry
[tb_dev] Currently allocated     2.41E+01 Mbytes, locked:    0 /   6
[tb_pin] Currently allocated     0.00E+00 Mbytes, locked:    0 /   0

     iteration # 17     ecut=    90.00 Ry     beta= 0.20
     Davidson diagonalization with overlap

---- Real-time Memory Report at c_bands before calling an iterative solver
         10682 MiB given to the printing process from OS
         -1883 MiB allocation reported by mallinfo(arena+hblkhd)
        463919 MiB available memory on the node where the printing process lives
     GPU memory used/free/total (MiB): 31797 / 33171 / 64969
------------------
     ethr =  1.17E-06,  avg # of iterations = 11.0

     negative rho (up, down):  3.980E-02 0.000E+00

     total cpu time spent up to now is      107.6 secs

     total energy              =   -9095.99534954 Ry
     estimated scf accuracy    <       0.00499244 Ry
[tb_dev] Currently allocated     2.41E+01 Mbytes, locked:    0 /   6
[tb_pin] Currently allocated     0.00E+00 Mbytes, locked:    0 /   0

     iteration # 18     ecut=    90.00 Ry     beta= 0.20
     Davidson diagonalization with overlap

---- Real-time Memory Report at c_bands before calling an iterative solver
         10682 MiB given to the printing process from OS
         -1883 MiB allocation reported by mallinfo(arena+hblkhd)
        463919 MiB available memory on the node where the printing process lives
     GPU memory used/free/total (MiB): 31797 / 33171 / 64969
------------------
     ethr =  3.59E-07,  avg # of iterations =  4.0

     negative rho (up, down):  4.030E-02 0.000E+00

     total cpu time spent up to now is      111.5 secs

     total energy              =   -9095.99539233 Ry
     estimated scf accuracy    <       0.00317105 Ry
[tb_dev] Currently allocated     2.41E+01 Mbytes, locked:    0 /   6
[tb_pin] Currently allocated     0.00E+00 Mbytes, locked:    0 /   0

     iteration # 19     ecut=    90.00 Ry     beta= 0.20
     Davidson diagonalization with overlap

---- Real-time Memory Report at c_bands before calling an iterative solver
         10682 MiB given to the printing process from OS
         -1883 MiB allocation reported by mallinfo(arena+hblkhd)
        463919 MiB available memory on the node where the printing process lives
     GPU memory used/free/total (MiB): 31797 / 33171 / 64969
------------------
     ethr =  2.28E-07,  avg # of iterations =  2.0

     negative rho (up, down):  4.055E-02 0.000E+00

     total cpu time spent up to now is      115.0 secs

     total energy              =   -9095.99559532 Ry
     estimated scf accuracy    <       0.00073902 Ry
[tb_dev] Currently allocated     2.41E+01 Mbytes, locked:    0 /   6
[tb_pin] Currently allocated     0.00E+00 Mbytes, locked:    0 /   0

     iteration # 20     ecut=    90.00 Ry     beta= 0.20
     Davidson diagonalization with overlap

---- Real-time Memory Report at c_bands before calling an iterative solver
         10682 MiB given to the printing process from OS
         -1883 MiB allocation reported by mallinfo(arena+hblkhd)
        463955 MiB available memory on the node where the printing process lives
     GPU memory used/free/total (MiB): 31797 / 33171 / 64969
------------------
     ethr =  5.31E-08,  avg # of iterations =  2.0

     negative rho (up, down):  4.071E-02 0.000E+00

     total cpu time spent up to now is      118.8 secs

     total energy              =   -9095.99565132 Ry
     estimated scf accuracy    <       0.00032506 Ry
[tb_dev] Currently allocated     2.41E+01 Mbytes, locked:    0 /   6
[tb_pin] Currently allocated     0.00E+00 Mbytes, locked:    0 /   0

     iteration # 21     ecut=    90.00 Ry     beta= 0.20
     Davidson diagonalization with overlap

---- Real-time Memory Report at c_bands before calling an iterative solver
         10682 MiB given to the printing process from OS
         -1883 MiB allocation reported by mallinfo(arena+hblkhd)
        463908 MiB available memory on the node where the printing process lives
     GPU memory used/free/total (MiB): 31797 / 33171 / 64969
------------------
     ethr =  2.34E-08,  avg # of iterations =  2.0

     negative rho (up, down):  4.084E-02 0.000E+00

     total cpu time spent up to now is      122.4 secs

     total energy              =   -9095.99564870 Ry
     estimated scf accuracy    <       0.00016387 Ry
[tb_dev] Currently allocated     2.41E+01 Mbytes, locked:    0 /   6
[tb_pin] Currently allocated     0.00E+00 Mbytes, locked:    0 /   0

     iteration # 22     ecut=    90.00 Ry     beta= 0.20
     Davidson diagonalization with overlap

---- Real-time Memory Report at c_bands before calling an iterative solver
         10682 MiB given to the printing process from OS
         -1883 MiB allocation reported by mallinfo(arena+hblkhd)
        463908 MiB available memory on the node where the printing process lives
     GPU memory used/free/total (MiB): 31797 / 33171 / 64969
------------------
     ethr =  1.18E-08,  avg # of iterations =  2.0

     negative rho (up, down):  4.094E-02 0.000E+00

     total cpu time spent up to now is      126.1 secs

     total energy              =   -9095.99565857 Ry
     estimated scf accuracy    <       0.00006674 Ry
[tb_dev] Currently allocated     2.41E+01 Mbytes, locked:    0 /   6
[tb_pin] Currently allocated     0.00E+00 Mbytes, locked:    0 /   0

     iteration # 23     ecut=    90.00 Ry     beta= 0.20
     Davidson diagonalization with overlap

---- Real-time Memory Report at c_bands before calling an iterative solver
         10682 MiB given to the printing process from OS
         -1883 MiB allocation reported by mallinfo(arena+hblkhd)
        463908 MiB available memory on the node where the printing process lives
     GPU memory used/free/total (MiB): 31797 / 33171 / 64969
------------------
     ethr =  4.79E-09,  avg # of iterations =  4.0

     negative rho (up, down):  4.100E-02 0.000E+00

     total cpu time spent up to now is      130.0 secs

     total energy              =   -9095.99566788 Ry
     estimated scf accuracy    <       0.00002049 Ry
[tb_dev] Currently allocated     2.41E+01 Mbytes, locked:    0 /   6
[tb_pin] Currently allocated     0.00E+00 Mbytes, locked:    0 /   0

     iteration # 24     ecut=    90.00 Ry     beta= 0.20
     Davidson diagonalization with overlap

---- Real-time Memory Report at c_bands before calling an iterative solver
         10682 MiB given to the printing process from OS
         -1883 MiB allocation reported by mallinfo(arena+hblkhd)
        463955 MiB available memory on the node where the printing process lives
     GPU memory used/free/total (MiB): 31797 / 33171 / 64969
------------------
     ethr =  1.47E-09,  avg # of iterations =  4.0

     negative rho (up, down):  4.105E-02 0.000E+00

     total cpu time spent up to now is      133.8 secs

     total energy              =   -9095.99566953 Ry
     estimated scf accuracy    <       0.00000930 Ry
[tb_dev] Currently allocated     2.41E+01 Mbytes, locked:    0 /   6
[tb_pin] Currently allocated     0.00E+00 Mbytes, locked:    0 /   0

     iteration # 25     ecut=    90.00 Ry     beta= 0.20
     Davidson diagonalization with overlap

---- Real-time Memory Report at c_bands before calling an iterative solver
         10682 MiB given to the printing process from OS
         -1883 MiB allocation reported by mallinfo(arena+hblkhd)
        463908 MiB available memory on the node where the printing process lives
     GPU memory used/free/total (MiB): 31797 / 33171 / 64969
------------------
     ethr =  6.68E-10,  avg # of iterations =  5.0

     negative rho (up, down):  4.108E-02 0.000E+00

     total cpu time spent up to now is      137.8 secs

     total energy              =   -9095.99567076 Ry
     estimated scf accuracy    <       0.00000454 Ry
[tb_dev] Currently allocated     2.41E+01 Mbytes, locked:    0 /   6
[tb_pin] Currently allocated     0.00E+00 Mbytes, locked:    0 /   0

     iteration # 26     ecut=    90.00 Ry     beta= 0.20
     Davidson diagonalization with overlap

---- Real-time Memory Report at c_bands before calling an iterative solver
         10682 MiB given to the printing process from OS
         -1883 MiB allocation reported by mallinfo(arena+hblkhd)
        463908 MiB available memory on the node where the printing process lives
     GPU memory used/free/total (MiB): 31797 / 33171 / 64969
------------------
     ethr =  3.26E-10,  avg # of iterations =  2.0

     negative rho (up, down):  4.110E-02 0.000E+00

     total cpu time spent up to now is      141.3 secs

     total energy              =   -9095.99567117 Ry
     estimated scf accuracy    <       0.00000173 Ry
[tb_dev] Currently allocated     2.41E+01 Mbytes, locked:    0 /   6
[tb_pin] Currently allocated     0.00E+00 Mbytes, locked:    0 /   0

     iteration # 27     ecut=    90.00 Ry     beta= 0.20
     Davidson diagonalization with overlap

---- Real-time Memory Report at c_bands before calling an iterative solver
         10682 MiB given to the printing process from OS
         -1883 MiB allocation reported by mallinfo(arena+hblkhd)
        463908 MiB available memory on the node where the printing process lives
     GPU memory used/free/total (MiB): 31797 / 33171 / 64969
------------------
     ethr =  1.25E-10,  avg # of iterations =  3.0

     negative rho (up, down):  4.112E-02 0.000E+00

     total cpu time spent up to now is      145.2 secs

     total energy              =   -9095.99567143 Ry
     estimated scf accuracy    <       0.00000079 Ry
[tb_dev] Currently allocated     2.41E+01 Mbytes, locked:    0 /   6
[tb_pin] Currently allocated     0.00E+00 Mbytes, locked:    0 /   0

     iteration # 28     ecut=    90.00 Ry     beta= 0.20
     Davidson diagonalization with overlap

---- Real-time Memory Report at c_bands before calling an iterative solver
         10682 MiB given to the printing process from OS
         -1883 MiB allocation reported by mallinfo(arena+hblkhd)
        463908 MiB available memory on the node where the printing process lives
     GPU memory used/free/total (MiB): 31797 / 33171 / 64969
------------------
     ethr =  5.65E-11,  avg # of iterations =  4.0

     negative rho (up, down):  4.113E-02 0.000E+00

     total cpu time spent up to now is      149.2 secs

     total energy              =   -9095.99567163 Ry
     estimated scf accuracy    <       0.00000025 Ry
[tb_dev] Currently allocated     2.41E+01 Mbytes, locked:    0 /   6
[tb_pin] Currently allocated     0.00E+00 Mbytes, locked:    0 /   0

     iteration # 29     ecut=    90.00 Ry     beta= 0.20
     Davidson diagonalization with overlap

---- Real-time Memory Report at c_bands before calling an iterative solver
         10682 MiB given to the printing process from OS
         -1883 MiB allocation reported by mallinfo(arena+hblkhd)
        463908 MiB available memory on the node where the printing process lives
     GPU memory used/free/total (MiB): 31797 / 33171 / 64969
------------------
     ethr =  1.81E-11,  avg # of iterations =  2.0

     negative rho (up, down):  4.114E-02 0.000E+00

     total cpu time spent up to now is      152.9 secs

     total energy              =   -9095.99567167 Ry
     estimated scf accuracy    <       0.00000010 Ry
[...]
     atom  143 type  1   force =     0.00000238   -0.00000106    0.00001746
     atom  144 type  1   force =     0.00002394   -0.00000343    0.00001958
     atom  145 type  1   force =    -0.00000546    0.00001142    0.00002547
     atom  146 type  1   force =    -0.00000850   -0.00000716    0.00002507
     atom  147 type  1   force =     0.00000287    0.00001235   -0.00000540
     atom  148 type  1   force =     0.00001363   -0.00001484   -0.00000149
     atom  149 type  1   force =    -0.00001924   -0.00000996    0.00000939
     atom  150 type  4   force =    -0.00003054   -0.00001176    0.00003281
     atom  151 type  2   force =    -0.00000173    0.00000141   -0.00000462
     atom  152 type  2   force =    -0.00000860   -0.00000201   -0.00000122
     atom  153 type  2   force =     0.00000125   -0.00000646   -0.00000081
     atom  154 type  2   force =    -0.00001070   -0.00001573   -0.00000717
     atom  155 type  2   force =    -0.00001417   -0.00000139   -0.00000026
     atom  156 type  2   force =    -0.00000729   -0.00000501    0.00000216
     atom  157 type  2   force =    -0.00001537   -0.00000263   -0.00001497
     atom  158 type  2   force =     0.00000076   -0.00001217   -0.00002128
     atom  159 type  2   force =    -0.00000113    0.00000862   -0.00002031
     atom  160 type  2   force =    -0.00001007    0.00000617   -0.00001236
     atom  161 type  2   force =    -0.00001374   -0.00001032   -0.00001081
     atom  162 type  2   force =    -0.00001735   -0.00000914   -0.00000824
     atom  163 type  2   force =    -0.00000427   -0.00000125    0.00000551
     atom  164 type  2   force =    -0.00001216   -0.00000985   -0.00001178
     atom  165 type  3   force =     0.00000640    0.00003680    0.00003118
     atom  166 type  3   force =     0.00004894    0.00001316    0.00001389
     atom  167 type  1   force =     0.00001559    0.00001300    0.00000777
     atom  168 type  1   force =    -0.00000282   -0.00000299    0.00000027
     atom  169 type  1   force =     0.00001881    0.00000777    0.00001280
     atom  170 type  1   force =     0.00000137    0.00002064    0.00001842
     atom  171 type  1   force =    -0.00001176   -0.00002285    0.00002050
     atom  172 type  1   force =    -0.00000738   -0.00000673    0.00000192
     atom  173 type  1   force =     0.00000758    0.00000597    0.00000542
     atom  174 type  1   force =    -0.00000020   -0.00000505   -0.00000897
     atom  175 type  4   force =    -0.00001610   -0.00001097    0.00000904
     atom  176 type  2   force =     0.00000010    0.00000015    0.00000983
     atom  177 type  2   force =    -0.00001070    0.00000131    0.00001095
     atom  178 type  2   force =    -0.00000593   -0.00001288    0.00001354
     atom  179 type  2   force =    -0.00001274   -0.00001223   -0.00000207
     atom  180 type  2   force =    -0.00000923   -0.00000443    0.00000482
     atom  181 type  2   force =    -0.00000284   -0.00000356    0.00000934
     atom  182 type  2   force =    -0.00001215    0.00000071    0.00000252
     atom  183 type  2   force =    -0.00000516   -0.00001200    0.00000140
     atom  184 type  2   force =    -0.00001762    0.00000060    0.00000337
     atom  185 type  2   force =    -0.00000223   -0.00000030    0.00000213
     atom  186 type  2   force =    -0.00000647    0.00000833    0.00001910
     atom  187 type  2   force =    -0.00001468   -0.00000407    0.00000759
     atom  188 type  2   force =     0.00000261   -0.00000217    0.00001034
     atom  189 type  2   force =    -0.00002019   -0.00001079    0.00000027
     atom  190 type  3   force =     0.00001993    0.00001584    0.00000288
     atom  191 type  3   force =    -0.00000445    0.00002026    0.00003780
     atom  192 type  1   force =    -0.00000395    0.00000613    0.00000428
     atom  193 type  1   force =    -0.00000319   -0.00000240    0.00002088
     atom  194 type  1   force =     0.00001213    0.00000732    0.00001574
     atom  195 type  1   force =     0.00000498    0.00001187    0.00002635
     atom  196 type  1   force =    -0.00000096   -0.00000557    0.00003132
     atom  197 type  1   force =     0.00001037    0.00000265    0.00000750
     atom  198 type  1   force =     0.00001652    0.00000298    0.00000767
     atom  199 type  1   force =    -0.00000766    0.00000010    0.00000202
     atom  200 type  4   force =    -0.00000633   -0.00000145    0.00003012
     atom  201 type  2   force =     0.00000725    0.00001077    0.00000025
     atom  202 type  2   force =     0.00000171    0.00000327   -0.00000100
     atom  203 type  2   force =     0.00000073    0.00000264   -0.00000590
     atom  204 type  2   force =     0.00000433   -0.00000206   -0.00000605
     atom  205 type  2   force =     0.00001668    0.00000320   -0.00001787
     atom  206 type  2   force =     0.00001282   -0.00000617   -0.00001185
     atom  207 type  2   force =     0.00000230    0.00000296   -0.00000118
     atom  208 type  2   force =     0.00000752    0.00000364   -0.00000334
     atom  209 type  2   force =     0.00000093    0.00001011   -0.00000402
     atom  210 type  2   force =     0.00000878   -0.00000555   -0.00000320
     atom  211 type  2   force =     0.00000511   -0.00000214   -0.00001145
     atom  212 type  2   force =     0.00000923    0.00000188   -0.00000589
     atom  213 type  2   force =    -0.00000398    0.00000010    0.00000100
     atom  214 type  2   force =     0.00001112    0.00000952   -0.00000995
     atom  215 type  3   force =     0.00001621    0.00000340   -0.00000589
     atom  216 type  3   force =    -0.00001254    0.00001814   -0.00000313
     atom  217 type  1   force =    -0.00002146   -0.00001178   -0.00001154
     atom  218 type  1   force =    -0.00000160   -0.00000055    0.00003270
     atom  219 type  1   force =     0.00000965    0.00000299    0.00001353
     atom  220 type  1   force =    -0.00000643    0.00001017    0.00001179
     atom  221 type  1   force =     0.00000168    0.00000570    0.00002361
     atom  222 type  1   force =     0.00002157    0.00001107   -0.00000550
     atom  223 type  1   force =     0.00000312   -0.00000988   -0.00000976
     atom  224 type  1   force =     0.00001262    0.00001302    0.00001735
     atom  225 type  4   force =     0.00000503    0.00001162    0.00000226
     atom  226 type  2   force =     0.00000112   -0.00000008   -0.00000946
     atom  227 type  2   force =     0.00000613    0.00000030   -0.00000479
     atom  228 type  2   force =     0.00001329    0.00000588   -0.00000144
     atom  229 type  2   force =    -0.00000003   -0.00000060    0.00000460
     atom  230 type  2   force =     0.00000017    0.00000323   -0.00000088
     atom  231 type  2   force =    -0.00000412   -0.00000497    0.00000551
     atom  232 type  2   force =     0.00002158    0.00000552    0.00002141
     atom  233 type  2   force =     0.00000314    0.00003208    0.00000902
     atom  234 type  2   force =     0.00000234   -0.00000519    0.00001911
     atom  235 type  2   force =     0.00002267   -0.00002743    0.00000908
     atom  236 type  2   force =     0.00000381    0.00000336    0.00001621
     atom  237 type  2   force =     0.00000025   -0.00000345    0.00000778
     atom  238 type  2   force =    -0.00000764   -0.00000379    0.00000303
     atom  239 type  2   force =     0.00000650    0.00000052   -0.00000362
     atom  240 type  3   force =    -0.00009219   -0.00002370   -0.00028003
     atom  241 type  3   force =    -0.00000485    0.00000846    0.00002821
     atom  242 type  1   force =     0.00000662   -0.00001317   -0.00000722
     atom  243 type  1   force =    -0.00001630    0.00000532   -0.00001454
     atom  244 type  1   force =     0.00000851   -0.00000301    0.00002379
     atom  245 type  1   force =     0.00000606    0.00000333    0.00002372
     atom  246 type  1   force =    -0.00001005   -0.00000294    0.00002961
     atom  247 type  1   force =    -0.00001761    0.00000261   -0.00002403
     atom  248 type  1   force =    -0.00002433   -0.00000751   -0.00002616
     atom  249 type  1   force =     0.00001496   -0.00001105    0.00002707
     atom  250 type  4   force =     0.00000631    0.00001803    0.00003018
     atom  251 type  2   force =     0.00000911    0.00000735    0.00000109
     atom  252 type  2   force =     0.00000648    0.00000123   -0.00000174
     atom  253 type  2   force =     0.00000321   -0.00000324   -0.00000418
     atom  254 type  2   force =     0.00000527    0.00000848   -0.00000918
     atom  255 type  2   force =     0.00000943    0.00000648   -0.00000613
     atom  256 type  2   force =     0.00000366    0.00001511   -0.00001179
     atom  257 type  2   force =     0.00000133   -0.00000292   -0.00001397
     atom  258 type  2   force =     0.00000623   -0.00000709   -0.00001218
     atom  259 type  2   force =     0.00000831    0.00000956   -0.00001633
     atom  260 type  2   force =     0.00000117    0.00000965   -0.00000504
     atom  261 type  2   force =     0.00000973    0.00001623    0.00000085
     atom  262 type  2   force =     0.00000903    0.00000124   -0.00001164
     atom  263 type  2   force =     0.00000036   -0.00000495    0.00000482
     atom  264 type  2   force =     0.00000954   -0.00000154   -0.00001074
     atom  265 type  3   force =    -0.00000181   -0.00001570    0.00001881
     atom  266 type  3   force =     0.00000430   -0.00001721    0.00000697
     atom  267 type  1   force =     0.00001368   -0.00000227    0.00000092
     atom  268 type  1   force =    -0.00000577    0.00000343   -0.00000377
     atom  269 type  1   force =     0.00000804   -0.00000720    0.00001929
     atom  270 type  1   force =    -0.00000273    0.00000750    0.00002668
     atom  271 type  1   force =     0.00000470   -0.00001127    0.00002335
     atom  272 type  1   force =    -0.00000232   -0.00000610   -0.00000420
     atom  273 type  1   force =    -0.00001337    0.00001984    0.00000785
     atom  274 type  1   force =     0.00001522    0.00000334    0.00001023
     atom  275 type  4   force =     0.00000465   -0.00000851   -0.00001800
     atom  276 type  2   force =     0.00001732    0.00001751    0.00000918
     atom  277 type  2   force =     0.00000509    0.00000807    0.00000670
     atom  278 type  2   force =     0.00000325    0.00000254   -0.00000057
     atom  279 type  2   force =    -0.00000451   -0.00000356    0.00000125
     atom  280 type  2   force =     0.00000608    0.00000189    0.00000633
     atom  281 type  2   force =     0.00000559   -0.00000921    0.00000434
     atom  282 type  2   force =     0.00000657   -0.00000396   -0.00000011
     atom  283 type  2   force =     0.00001057    0.00000845   -0.00000321
     atom  284 type  2   force =     0.00002129    0.00000532   -0.00000475
     atom  285 type  2   force =     0.00001764    0.00000381    0.00001620
     atom  286 type  2   force =     0.00000196    0.00002446    0.00001229
     atom  287 type  2   force =    -0.00001185   -0.00001243    0.00001960
     atom  288 type  2   force =    -0.00000786   -0.00000635    0.00000736
     atom  289 type  2   force =    -0.00000011   -0.00000259    0.00000129
     atom  290 type  3   force =    -0.00005596    0.00000110    0.00000498
     atom  291 type  3   force =     0.00006364    0.00006087   -0.00016647
     atom  292 type  1   force =    -0.00002083    0.00000447    0.00000010
     atom  293 type  1   force =     0.00000908    0.00000121    0.00003838
     atom  294 type  1   force =     0.00003170    0.00000048    0.00001302
     atom  295 type  1   force =    -0.00000161    0.00003508    0.00001146
     atom  296 type  1   force =    -0.00002007   -0.00002329    0.00001624
     atom  297 type  1   force =     0.00002034    0.00001488   -0.00000443
     atom  298 type  1   force =     0.00001200   -0.00001315   -0.00000473
     atom  299 type  1   force =     0.00000942    0.00001391   -0.00001990
     atom  300 type  4   force =    -0.00001108   -0.00001282    0.00002220

     Total force =     1.011124     Total SCF correction =     0.000531


     Computing stress (Cartesian axis) and pressure


     negative rho (up, down):  4.116E-02 0.000E+00
          total   stress  (Ry/bohr**3)                   (kbar)     P=        1.27
   0.00003385  -0.00001385  -0.00001502            4.98       -2.04       -2.21
  -0.00001385   0.00004982  -0.00000544           -2.04        7.33       -0.80
  -0.00001502  -0.00000544  -0.00005787           -2.21       -0.80       -8.51

     kinetic stress (kbar)   5329.13     -0.26     -2.62
                               -0.26   5334.66     -0.53
                               -2.62     -0.53   5319.58

     local   stress (kbar)-641350.51    128.40    -37.63
                              128.40-641448.98    -52.78
                              -37.63    -52.78 635033.50

     nonloc. stress (kbar)    957.67      0.70      0.28
                                0.70    957.08     -0.20
                                0.28     -0.20    954.91

     hartree stress (kbar) 321298.96    -43.71     20.10
                              -43.71 321323.95     12.15
                               20.10     12.15-315448.57

     exc-cor stress (kbar)  -1263.51     -0.19     -0.04
                               -0.19  -1263.13      0.19
                               -0.04      0.19  -1265.29

     corecor stress (kbar)   -292.82      0.01      0.01
                                0.01   -292.86     -0.01
                                0.01     -0.01   -292.72

     ewald   stress (kbar) 315326.06    -86.97     17.68
                              -86.97 315396.61     40.38
                               17.68     40.38-324309.92

     hubbard stress (kbar)      0.00      0.00      0.00
                                0.00      0.00      0.00
                                0.00      0.00      0.00

     DFT-D   stress (kbar)      0.00      0.00      0.00
                                0.00      0.00      0.00
                                0.00      0.00      0.00

     XDM     stress (kbar)      0.00      0.00      0.00
                                0.00      0.00      0.00
                                0.00      0.00      0.00

     dft-nl  stress (kbar)      0.00      0.00      0.00
                                0.00      0.00      0.00
                                0.00      0.00      0.00

     TS-vdW  stress (kbar)      0.00      0.00      0.00
                                0.00      0.00      0.00
                                0.00      0.00      0.00

     MDB     stress (kbar)      0.00      0.00      0.00
                                0.00      0.00      0.00
                                0.00      0.00      0.00

     3D-RISM stress (kbar)      0.00      0.00      0.00
                                0.00      0.00      0.00
                                0.00      0.00      0.00


     Writing all to output data dir ./tmp/pwscf.save/
 
     init_run     :     29.19s CPU     33.98s WALL (       1 calls)
     electrons    :    115.16s CPU    122.33s WALL (       1 calls)
     forces       :      3.10s CPU      3.32s WALL (       1 calls)
     stress       :     81.00s CPU     83.46s WALL (       1 calls)

     Called by init_run:
     wfcinit      :      3.45s CPU      5.37s WALL (       1 calls)
                                        5.37s GPU  (       1 calls)
     wfcinit:atom :      0.01s CPU      0.01s WALL (       1 calls)
                                        0.01s GPU  (       1 calls)
     wfcinit:wfcr :      1.24s CPU      2.40s WALL (       1 calls)
                                        2.40s GPU  (       1 calls)
     potinit      :     16.18s CPU     16.43s WALL (       1 calls)
     hinit0       :      7.23s CPU      7.47s WALL (       1 calls)

     Called by electrons:
     c_bands      :     72.16s CPU     73.80s WALL (      30 calls)
     sum_band     :     16.39s CPU     17.00s WALL (      30 calls)
     v_of_rho     :      3.33s CPU      3.47s WALL (      31 calls)
     v_h          :      1.81s CPU      1.88s WALL (      31 calls)
     v_xc         :      1.65s CPU      1.72s WALL (      33 calls)
     newd         :      2.52s CPU      4.97s WALL (      31 calls)
                                        4.97s GPU  (      31 calls)
     PAW_pot      :      3.37s CPU      3.39s WALL (      31 calls)
     mix_rho      :      8.31s CPU      8.64s WALL (      30 calls)

     Called by c_bands:
     init_us_2    :      0.47s CPU      0.81s WALL (      61 calls)
     init_us_2:gp :      0.47s CPU      0.81s WALL (      61 calls)
     regterg      :     62.68s CPU     64.11s WALL (      31 calls)

     Called by sum_band:
     sum_band:wei :      0.01s CPU      0.01s WALL (      30 calls)
                                        0.01s GPU  (      30 calls)
     sum_band:loo :     12.91s CPU     13.41s WALL (      30 calls)
                                       13.41s GPU  (      30 calls)
     sum_band:buf :      1.95s CPU      1.96s WALL (      30 calls)
                                        1.96s GPU  (      30 calls)
     sum_band:ini :      0.23s CPU      0.64s WALL (      30 calls)
                                        0.63s GPU  (      30 calls)
     sum_band:cal :      2.16s CPU      2.24s WALL (      30 calls)
                                        2.23s GPU  (      30 calls)
     sum_band:bec :      0.21s CPU      0.21s WALL (      30 calls)
                                        0.21s GPU  (      30 calls)
     addusdens    :      2.14s CPU      2.24s WALL (      30 calls)
                                        2.24s GPU  (      30 calls)
     addusd:skk   :      0.45s CPU      0.46s WALL (     120 calls)
                                        0.46s GPU  (     120 calls)

     Called by *egterg:
     rdiaghg      :      5.66s CPU      5.80s WALL (     209 calls)
                                        5.80s GPU  (     209 calls)
     regterg:over :      3.86s CPU      3.93s WALL (     178 calls)
     regterg:upda :      2.07s CPU      2.12s WALL (     178 calls)
     regterg:last :      4.20s CPU      4.21s WALL (      66 calls)
     h_psi        :     40.50s CPU     42.66s WALL (     210 calls)
                                       42.65s GPU  (     210 calls)
     s_psi        :      1.03s CPU      4.94s WALL (     210 calls)
                                        4.80s GPU  (     210 calls)
     g_psi        :      0.00s CPU      0.20s WALL (     178 calls)
                                        0.20s GPU  (     178 calls)

     Called by h_psi:
     h_psi:calbec :      5.81s CPU      6.09s WALL (     210 calls)
                                        6.09s GPU  (     210 calls)
     vloc_psi     :     30.15s CPU     31.46s WALL (     210 calls)
                                       31.46s GPU  (     210 calls)
     add_vuspsi   :      0.44s CPU      4.89s WALL (     210 calls)
                                        4.88s GPU  (     210 calls)

     General routines
     calbec       :      8.35s CPU      8.84s WALL (     245 calls)
     fft          :      5.84s CPU      7.75s WALL (     359 calls)
                                        0.74s GPU  (     328 calls)
     ffts         :      2.98s CPU      3.53s WALL (      61 calls)
                                        0.05s GPU  (      30 calls)
     fftw         :     18.11s CPU     30.62s WALL (   16898 calls)
                                       30.41s GPU  (   16898 calls)
     interpolate  :      9.44s CPU     11.75s WALL (      31 calls)
 
     Parallel routines

     PAW routines
     PAW_pot      :      3.37s CPU      3.39s WALL (      31 calls)
 
     PWSCF        :   3m50.85s CPU   4m10.71s WALL

 
   This run was terminated on:  13:47:26  30Dec2023            

=------------------------------------------------------------------------------=
   JOB DONE.
=------------------------------------------------------------------------------=
