
     Program PWSCF v.7.2 starts on 30Dec2023 at 14:12:30 

     This program is part of the open-source Quantum ESPRESSO suite
     for quantum simulation of materials; please cite
         "P. Giannozzi et al., J. Phys.:Condens. Matter 21 395502 (2009);
         "P. Giannozzi et al., J. Phys.:Condens. Matter 29 465901 (2017);
         "P. Giannozzi et al., J. Chem. Phys. 152 154105 (2020);
          URL http://www.quantum-espresso.org", 
     in publications or presentations arising from this work. More details at
     http://www.quantum-espresso.org/quote

     Parallel version (MPI & OpenMP), running on       4 processor cores
     Number of MPI processes:                 4
     Threads/MPI process:                     1

     MPI processes distributed on     1 nodes
     503965 MiB available memory on the printing compute node when the environment starts
 
     Reading input from input_0012.inp

     Current dimensions of program PWSCF are:
     Max number of different atomic species (ntypx) = 10
     Max number of k-points (npk) =  40000
     Max angular momentum in pseudopotentials (lmaxx) =  4
     file O.pbe-n-kjpaw_psl.0.1.UPF: wavefunction(s)  2P renormalized

     gamma-point specific algorithms are used
 
     R & G space division:  proc/nbgrp/npool/nimage =       4
     Subspace diagonalization in iterative solution of the eigenvalue problem:
     a serial algorithm will be used

 
     Parallelization info
     --------------------
     sticks:   dense  smooth     PW     G-vecs:    dense   smooth      PW
     Min        6485    4324   1079              2728975  1485363  185656
     Max        6486    4326   1080              2728990  1485382  185664
     Sum       25943   17301   4319             10915929  5941483  742635
 
     Using Slab Decomposition
 


     bravais-lattice index     =            0
     lattice parameter (alat)  =      32.3352  a.u.
     unit-cell volume          =   51510.8153 (a.u.)^3
     number of atoms/cell      =          300
     number of atomic types    =            4
     number of electrons       =      1392.00
     number of Kohn-Sham states=          835
     kinetic-energy cutoff     =      90.0000  Ry
     charge density cutoff     =     540.0000  Ry
     scf convergence threshold =      1.0E-07
     mixing beta               =       0.2000
     number of iterations used =            8  plain     mixing
     Exchange-correlation= SLA  PW   PBX  PBC
                           (   1   4   3   4   0   0   0)

     GPU acceleration is ACTIVE.
     GPU-aware MPI enabled


     GPU used by master process:

        Device Number: 0
        Device name: NVIDIA PG506-243
        Compute capability : 80
        Ratio of single to double precision performance  : 2
        Memory Clock Rate (KHz): 1593000
        Memory Bus Width (bits): 4096
        Peak Memory Bandwidth (GB/s): ******

     celldm(1)=  32.335181  celldm(2)=   0.000000  celldm(3)=   0.000000
     celldm(4)=   0.000000  celldm(5)=   0.000000  celldm(6)=   0.000000

     crystal axes: (cart. coord. in units of alat)
               a(1) = (   1.000000   0.000000   0.000000 )  
               a(2) = (  -0.333333   0.577350   0.000000 )  
               a(3) = (   0.000000  -0.000000   2.638962 )  

     reciprocal axes: (cart. coord. in units 2 pi/alat)
               b(1) = (  1.000000  0.577350  0.000000 )  
               b(2) = ( -0.000000  1.732051  0.000000 )  
               b(3) = (  0.000000 -0.000000  0.378937 )  


     PseudoPot. # 1 for N  read from file:
     /leonardo_scratch/large/userexternal/uraucci0/Li_Cr/PPS/N.pbe-n-radius_5.UPF
     MD5 check sum: 16739722b17309cd8fe442a2ace49922
     Pseudo is Ultrasoft + core correction, Zval =  5.0
     Generated using "atomic" code by A. Dal Corso  v.5.1
     Using radial grid of 1085 points,  4 beta functions with: 
                l(1) =   0
                l(2) =   0
                l(3) =   1
                l(4) =   1
     Q(r) pseudized with 0 coefficients 


     PseudoPot. # 2 for Li read from file:
     /leonardo_scratch/large/userexternal/uraucci0/Li_Cr/PPS/li_pbe_v1.4.uspp.F.UPF
     MD5 check sum: e912e257baa3777c20ea3d68f190483c
     Pseudo is Ultrasoft, Zval =  3.0
     Generated by new atomic code, or converted to UPF format
     Using radial grid of  751 points,  5 beta functions with: 
                l(1) =   0
                l(2) =   0
                l(3) =   0
                l(4) =   1
                l(5) =   1
     Q(r) pseudized with 10 coefficients,  rinner =    1.150   1.150   1.150


     PseudoPot. # 3 for Cr read from file:
     /leonardo_scratch/large/userexternal/uraucci0/Li_Cr/PPS/cr_pbe_v1.5.uspp.F.UPF
     MD5 check sum: 0d52af634a40206e4dee301ad30da4bf
     Pseudo is Ultrasoft + core correction, Zval = 14.0
     Generated by new atomic code, or converted to UPF format
     Using radial grid of  857 points,  6 beta functions with: 
                l(1) =   0
                l(2) =   0
                l(3) =   1
                l(4) =   1
                l(5) =   2
                l(6) =   2
     Q(r) pseudized with  8 coefficients,  rinner =    0.950   0.950   0.950
                                                       0.950   0.950

     PseudoPot. # 4 for O  read from file:
     /leonardo_scratch/large/userexternal/uraucci0/Li_Cr/PPS/O.pbe-n-kjpaw_psl.0.1.UPF
     MD5 check sum: 0234752ac141de4415c5fc33072bef88
     Pseudo is Projector augmented-wave + core cor, Zval =  6.0
     Generated using "atomic" code by A. Dal Corso  v.5.0.99 svn rev. 10869
     Shape of augmentation charge: BESSEL
     Using radial grid of 1095 points,  4 beta functions with: 
                l(1) =   0
                l(2) =   0
                l(3) =   1
                l(4) =   1
     Q(r) pseudized with 0 coefficients 


     atomic species   valence    mass     pseudopotential
        N              5.00    14.00674     N ( 1.00)
        Li             3.00     6.94100     Li( 1.00)
        Cr            14.00    51.99610     Cr( 1.00)
        O              6.00    15.99940     O ( 1.00)

     No symmetry found


                                    s                        frac. trans.

      isym =  1     identity                                     

 cryst.   s( 1) = (     1          0          0      )
                  (     0          1          0      )
                  (     0          0          1      )

 cart.    s( 1) = (  1.0000000  0.0000000  0.0000000 )
                  (  0.0000000  1.0000000  0.0000000 )
                  (  0.0000000  0.0000000  1.0000000 )


   Cartesian axes

     site n.     atom                  positions (alat units)
         1           Li  tau(   1) = (   0.2593273   0.0873080   0.8766270  )
         2           Li  tau(   2) = (   0.1280588   0.1809300   0.8766270  )
         3           Li  tau(   3) = (   0.1126144   0.0204373   0.8766270  )
         4           Li  tau(   4) = (  -0.1094819   0.2006757   1.2946962  )
         5           Li  tau(   5) = (   0.0361690   0.0813627   1.2909092  )
         6           Li  tau(   6) = (   0.0473480   0.2663064   1.2745104  )
         7           Li  tau(   7) = (   0.0669942   0.0904568   1.0336250  )
         8           Li  tau(   8) = (   0.2214985   0.0127904   1.0336250  )
         9           Li  tau(   9) = (   0.2115073   0.1854282   1.0336250  )
        10           Li  tau(  10) = (   0.1057417   0.2005658   1.1306676  )
        11           Li  tau(  11) = (  -0.0583500   0.2739611   1.1141870  )
        12           Li  tau(  12) = (  -0.0385690   0.0952818   1.1250630  )
        13           Li  tau(  13) = (   0.0000000   0.0000000   0.9626942  )
        14           Li  tau(  14) = (   0.6536481   0.5815666   1.2029835  )
        15           Cr  tau(  15) = (   0.1622420   0.0987298   1.2177167  )
        16           Cr  tau(  16) = (  -0.0000000   0.1924500   0.9478909  )
        17           N   tau(  17) = (   0.2621302   0.1007402   1.2377038  )
        18           N   tau(  18) = (   0.1598220   0.1004883   1.1086526  )
        19           N   tau(  19) = (  -0.0969339   0.1982778   0.9168466  )
        20           N   tau(  20) = (   0.0434200   0.1055885   0.9168466  )
        21           N   tau(  21) = (   0.0535141   0.2734837   0.9168466  )
        22           N   tau(  22) = (   0.1098460   0.0157289   1.2448103  )
        23           N   tau(  23) = (   0.1240614   0.1861891   1.2445648  )
        24           N   tau(  24) = (  -0.0000000   0.1924500   1.0497374  )
        25           O   tau(  25) = (  -0.0005715   0.0004326   1.0900798  )
        26           Li  tau(  26) = (   0.2718338   0.0726619   1.3660127  )
        27           Li  tau(  27) = (   0.1287017   0.1844230   1.3637510  )
        28           Li  tau(  28) = (   0.0919301   0.0136297   1.3793667  )
        29           Li  tau(  29) = (  -0.0971197   0.2101550   1.7701494  )
        30           Li  tau(  30) = (   0.0479261   0.1088595   1.7760170  )
        31           Li  tau(  31) = (   0.0596334   0.2664350   1.7908963  )
        32           Li  tau(  32) = (   0.0723580   0.1087321   1.5203283  )
        33           Li  tau(  33) = (  -0.1061765   0.5940375   1.5228296  )
        34           Li  tau(  34) = (   0.2156777   0.1852944   1.5391582  )
        35           Li  tau(  35) = (   0.0914895   0.1999002   1.6321625  )
        36           Li  tau(  36) = (  -0.0649598   0.2877540   1.6166228  )
        37           Li  tau(  37) = (  -0.0407935   0.1238925   1.6282235  )
        38           Li  tau(  38) = (  -0.3209507   0.5779263   1.4700216  )
        39           Li  tau(  39) = (  -0.0084792   0.0025539   1.6896926  )
        40           Cr  tau(  40) = (   0.1671143   0.0877778   1.7014628  )
        41           Cr  tau(  41) = (  -0.0101960   0.1976233   1.4506540  )
        42           N   tau(  42) = (   0.2659470   0.0750621   1.7385792  )
        43           N   tau(  43) = (   0.1747784   0.0841854   1.6031988  )
        44           N   tau(  44) = (  -0.1036833   0.1884280   1.4124038  )
        45           N   tau(  45) = (   0.0360589   0.1118664   1.4067291  )
        46           N   tau(  46) = (   0.0333567   0.2926894   1.4312747  )
        47           N   tau(  47) = (   0.1145535   0.0180107   1.7394558  )
        48           N   tau(  48) = (   0.1269899   0.1803806   1.7430441  )
        49           N   tau(  49) = (   0.0024029   0.1872691   1.5489823  )
        50           O   tau(  50) = (   0.0038133  -0.0012204   1.5791909  )
        51           Li  tau(  51) = (   0.0926606   0.3759836   0.8766270  )
        52           Li  tau(  52) = (  -0.0386079   0.4696050   0.8766270  )
        53           Li  tau(  53) = (  -0.0540524   0.3091127   0.8766270  )
        54           Li  tau(  54) = (  -0.2686990   0.4976033   1.2777072  )
        55           Li  tau(  55) = (  -0.1286701   0.3988203   1.2685377  )
        56           Li  tau(  56) = (  -0.1315876   0.5388778   1.2674682  )
        57           Li  tau(  57) = (  -0.0996725   0.3791318   1.0336250  )
        58           Li  tau(  58) = (   0.0548319   0.3014656   1.0336250  )
        59           Li  tau(  59) = (   0.0448406   0.4741032   1.0336250  )
        60           Li  tau(  60) = (  -0.0724415   0.4967863   1.1145143  )
        61           Li  tau(  61) = (  -0.2241103   0.5729377   1.1183715  )
        62           Li  tau(  62) = (  -0.2076390   0.3923642   1.1201306  )
        63           Li  tau(  63) = (  -0.1666667   0.2886750   0.9626942  )
        64           Li  tau(  64) = (   0.8155436   0.2940593   1.2080212  )
        65           Cr  tau(  65) = (  -0.0005814   0.3824566   1.2013880  )
        66           Cr  tau(  66) = (  -0.1666667   0.4811250   0.9478909  )
        67           N   tau(  67) = (   0.0991448   0.3775533   1.2365641  )
        68           N   tau(  68) = (  -0.0147197   0.3886742   1.1002837  )
        69           N   tau(  69) = (  -0.2636006   0.4869528   0.9168466  )
        70           N   tau(  70) = (  -0.1232467   0.3942641   0.9168466  )
        71           N   tau(  71) = (  -0.1131527   0.5621587   0.9168466  )
        72           N   tau(  72) = (  -0.0532131   0.3044788   1.2371836  )
        73           N   tau(  73) = (  -0.0328893   0.4724073   1.2450324  )
        74           N   tau(  74) = (  -0.1666667   0.4811250   1.0497374  )
        75           O   tau(  75) = (   0.8349813   0.2957833   1.0645173  )
        76           Li  tau(  76) = (   0.0796445   0.3665557   1.3607530  )
        77           Li  tau(  77) = (  -0.0413978   0.4717410   1.3544179  )
        78           Li  tau(  78) = (  -0.0601103   0.3026934   1.3583335  )
        79           Li  tau(  79) = (  -0.2676786   0.4890556   1.7769345  )
        80           Li  tau(  80) = (  -0.1248738   0.4003719   1.7607579  )
        81           Li  tau(  81) = (  -0.1015566   0.5519354   1.7863787  )
        82           Li  tau(  82) = (  -0.0757511   0.3905905   1.5162198  )
        83           Li  tau(  83) = (   0.0534788   0.2997380   1.5514661  )
        84           Li  tau(  84) = (   0.0408315   0.4833324   1.5293985  )
        85           Li  tau(  85) = (  -0.0704779   0.4873602   1.6219703  )
        86           Li  tau(  86) = (  -0.2207399   0.5627612   1.6059397  )
        87           Li  tau(  87) = (  -0.2160622   0.3876000   1.6071670  )
        88           Li  tau(  88) = (   0.8367697   0.2878697   1.4417241  )
        89           Li  tau(  89) = (   0.8201722   0.3075780   1.6915277  )
        90           Cr  tau(  90) = (   0.0055590   0.3766147   1.7074297  )
        91           Cr  tau(  91) = (  -0.1717973   0.4784677   1.4424955  )
        92           N   tau(  92) = (   0.1002394   0.3681968   1.7484968  )
        93           N   tau(  93) = (  -0.0004301   0.3845616   1.6047241  )
        94           N   tau(  94) = (  -0.2712646   0.4730577   1.4159103  )
        95           N   tau(  95) = (  -0.1312235   0.4008809   1.3990966  )
        96           N   tau(  96) = (  -0.1221498   0.5659860   1.4154779  )
        97           N   tau(  97) = (  -0.0672437   0.2956886   1.7360136  )
        98           N   tau(  98) = (  -0.0376341   0.4590229   1.7452532  )
        99           N   tau(  99) = (  -0.1685754   0.4665257   1.5457914  )
       100           O   tau( 100) = (   0.8315859   0.2827911   1.5849825  )
       101           Li  tau( 101) = (   0.5926583   0.0873080   0.8766270  )
       102           Li  tau( 102) = (   0.4613921   0.1809300   0.8766270  )
       103           Li  tau( 103) = (   0.4459477   0.0204373   0.8766270  )
       104           Li  tau( 104) = (   0.2544679   0.2057438   1.2725000  )
       105           Li  tau( 105) = (   0.3744196   0.1177515   1.2668195  )
       106           Li  tau( 106) = (   0.3976579   0.2667190   1.2825403  )
       107           Li  tau( 107) = (   0.4003275   0.0904568   1.0336250  )
       108           Li  tau( 108) = (   0.5548318   0.0127904   1.0336250  )
       109           Li  tau( 109) = (   0.5448406   0.1854282   1.0336250  )
       110           Li  tau( 110) = (   0.4206991   0.2179978   1.1045149  )
       111           Li  tau( 111) = (   0.2719870   0.2850335   1.1247416  )
       112           Li  tau( 112) = (   0.2765863   0.1022667   1.1207384  )
       113           Li  tau( 113) = (   0.3333333   0.0000000   0.9626942  )
       114           Li  tau( 114) = (   0.3385527  -0.0075285   1.1961341  )
       115           Cr  tau( 115) = (   0.4950365   0.1037470   1.2099439  )
       116           Cr  tau( 116) = (   0.3333333   0.1924500   0.9478909  )
       117           N   tau( 117) = (   0.5970823   0.1019774   1.2401349  )
       118           N   tau( 118) = (   0.5013365   0.0970812   1.1113175  )
       119           N   tau( 119) = (   0.2363994   0.1982778   0.9168466  )
       120           N   tau( 120) = (   0.3767532   0.1055885   0.9168466  )
       121           N   tau( 121) = (   0.3868473   0.2734837   0.9168466  )
       122           N   tau( 122) = (   0.4495419   0.0212369   1.2456168  )
       123           N   tau( 123) = (   0.4583859   0.1918907   1.2408129  )
       124           N   tau( 124) = (   0.3333333   0.1924500   1.0497374  )
       125           O   tau( 125) = (   0.3443215   0.0069512   1.0782103  )
       126           Li  tau( 126) = (   0.3142608   0.5837588   1.4616936  )
       127           Li  tau( 127) = (   0.4636620   0.1737849   1.3730257  )
       128           Li  tau( 128) = (   0.6052992   0.0897409   1.3667433  )
       129           Li  tau( 129) = (   0.2428900   0.1793783   1.7735508  )
       130           Li  tau( 130) = (   0.3706122   0.1009348   1.7988853  )
       131           Li  tau( 131) = (   0.3988805   0.2656805   1.7831177  )
       132           Li  tau( 132) = (   0.3963038   0.0841515   1.5330511  )
       133           Li  tau( 133) = (   0.1220089   0.5608215   1.6173592  )
       134           Li  tau( 134) = (   0.5454227   0.1635196   1.5414258  )
       135           Li  tau( 135) = (   0.4250086   0.1995589   1.6155183  )
       136           Li  tau( 136) = (   0.2798000   0.2688819   1.6316190  )
       137           Li  tau( 137) = (   0.2760995   0.1134951   1.6250911  )
       138           Li  tau( 138) = (   0.4441056   0.0247873   1.3623484  )
       139           Li  tau( 139) = (   0.0062264   0.5771063   1.6780919  )
       140           Cr  tau( 140) = (   0.4984244   0.0885218   1.7078797  )
       141           Cr  tau( 141) = (   0.3406000   0.1893275   1.4513962  )
       142           N   tau( 142) = (   0.6067895   0.0855752   1.7406539  )
       143           N   tau( 143) = (   0.5026579   0.0903580   1.6061968  )
       144           N   tau( 144) = (   0.2370160   0.1968559   1.4220935  )
       145           N   tau( 145) = (   0.3688139   0.0939277   1.4162025  )
       146           N   tau( 146) = (   0.3906969   0.2706767   1.4077694  )
       147           N   tau( 147) = (   0.4504600   0.0020024   1.7397363  )
       148           N   tau( 148) = (   0.4501123   0.1654610   1.7358792  )
       149           N   tau( 149) = (   0.3359912   0.1908066   1.5493213  )
       150           O   tau( 150) = (  -0.0139861   0.5730733   1.5701733  )
       151           Li  tau( 151) = (   0.4259940   0.3759836   0.8766270  )
       152           Li  tau( 152) = (   0.2947255   0.4696050   0.8766270  )
       153           Li  tau( 153) = (   0.2792811   0.3091127   0.8766270  )
       154           Li  tau( 154) = (   0.0935156   0.4874864   1.2824643  )
       155           Li  tau( 155) = (   0.2030362   0.3923297   1.2900735  )
       156           Li  tau( 156) = (   0.2309409   0.5740890   1.2778241  )
       157           Li  tau( 157) = (   0.2336608   0.3791318   1.0336250  )
       158           Li  tau( 158) = (   0.3881652   0.3014656   1.0336250  )
       159           Li  tau( 159) = (   0.3781739   0.4741032   1.0336250  )
       160           Li  tau( 160) = (   0.2518310   0.4870294   1.1273657  )
       161           Li  tau( 161) = (   0.1021691   0.5671531   1.1185818  )
       162           Li  tau( 162) = (   0.1173640   0.3974966   1.1009149  )
       163           Li  tau( 163) = (   0.1666667   0.2886750   0.9626942  )
       164           Li  tau( 164) = (   0.1590213   0.3141252   1.1981504  )
       165           Cr  tau( 165) = (   0.3348242   0.3902913   1.2102420  )
       166           Cr  tau( 166) = (   0.1666667   0.4811250   0.9478909  )
       167           N   tau( 167) = (   0.4294005   0.3861372   1.2328823  )
       168           N   tau( 168) = (   0.3385861   0.3820948   1.1104643  )
       169           N   tau( 169) = (   0.0697328   0.4869528   0.9168466  )
       170           N   tau( 170) = (   0.2100866   0.3942641   0.9168466  )
       171           N   tau( 171) = (   0.2201806   0.5621587   0.9168466  )
       172           N   tau( 172) = (   0.2804902   0.3059814   1.2387090  )
       173           N   tau( 173) = (   0.2891437   0.4768459   1.2422272  )
       174           N   tau( 174) = (   0.1666667   0.4811250   1.0497374  )
       175           O   tau( 175) = (   0.1601112   0.3044981   1.0624953  )
       176           Li  tau( 176) = (   0.4089418   0.3813257   1.3891557  )
       177           Li  tau( 177) = (   0.2947740   0.4796073   1.3878700  )
       178           Li  tau( 178) = (   0.2722108   0.2923031   1.3675673  )
       179           Li  tau( 179) = (   0.0745472   0.4759518   1.7665377  )
       180           Li  tau( 180) = (   0.2047982   0.3907138   1.7632533  )
       181           Li  tau( 181) = (   0.2184776   0.5561584   1.7854612  )
       182           Li  tau( 182) = (   0.2388639   0.3832724   1.5223738  )
       183           Li  tau( 183) = (   0.3979740   0.2863262   1.5343543  )
       184           Li  tau( 184) = (   0.4104344   0.4317312   1.5446459  )
       185           Li  tau( 185) = (   0.2639144   0.4742505   1.6227066  )
       186           Li  tau( 186) = (   0.3238961  -0.0081139   1.4539676  )
       187           Li  tau( 187) = (   0.1151987   0.3939199   1.6160151  )
       188           Li  tau( 188) = (   0.1579390   0.2888486   1.4654573  )
       189           Li  tau( 189) = (   0.1838719   0.2699210   1.6992362  )
       190           Cr  tau( 190) = (   0.3319027   0.3772658   1.7090193  )
       191           Cr  tau( 191) = (   0.1631841   0.4755321   1.4445059  )
       192           N   tau( 192) = (   0.4280961   0.3686333   1.7454227  )
       193           N   tau( 193) = (   0.3406374   0.3767544   1.6044786  )
       194           N   tau( 194) = (   0.0742532   0.4870440   1.4108317  )
       195           N   tau( 195) = (   0.2066858   0.3860472   1.4149285  )
       196           N   tau( 196) = (   0.2171405   0.5610512   1.4144551  )
       197           N   tau( 197) = (   0.2871736   0.2847390   1.7423078  )
       198           N   tau( 198) = (   0.2777879   0.4615552   1.7417409  )
       199           N   tau( 199) = (   0.1577566   0.4823085   1.5465102  )
       200           O   tau( 200) = (   0.1747573   0.2818309   1.5939241  )
       201           Li  tau( 201) = (   0.9259927   0.0873080   0.8766270  )
       202           Li  tau( 202) = (   0.7947266   0.1809300   0.8766270  )
       203           Li  tau( 203) = (   0.7792805   0.0204373   0.8766270  )
       204           Li  tau( 204) = (   0.5738973   0.2139794   1.2808981  )
       205           Li  tau( 205) = (   0.7030314   0.1189694   1.2763279  )
       206           Li  tau( 206) = (   0.7137146   0.2755694   1.2911137  )
       207           Li  tau( 207) = (   0.7336608   0.0904568   1.0336250  )
       208           Li  tau( 208) = (   0.8881634   0.0127904   1.0336250  )
       209           Li  tau( 209) = (   0.8781757   0.1854282   1.0336250  )
       210           Li  tau( 210) = (   0.7613213   0.1816973   1.1100143  )
       211           Li  tau( 211) = (   0.6078707   0.2507200   1.1258929  )
       212           Li  tau( 212) = (   0.6187584   0.1052700   1.1129773  )
       213           Li  tau( 213) = (   0.6666690   0.0000000   0.9626942  )
       214           Li  tau( 214) = (   0.6619060   0.0019321   1.1800159  )
       215           Cr  tau( 215) = (   0.8295287   0.0855372   1.2012536  )
       216           Cr  tau( 216) = (   0.6666690   0.1924500   0.9478909  )
       217           N   tau( 217) = (   0.9261038   0.0805731   1.2392642  )
       218           N   tau( 218) = (   0.8131825   0.0829277   1.1003129  )
       219           N   tau( 219) = (   0.5697327   0.1982778   0.9168466  )
       220           N   tau( 220) = (   0.7100854   0.1055885   0.9168466  )
       221           N   tau( 221) = (   0.7201783   0.2734837   0.9168466  )
       222           N   tau( 222) = (   0.7798064   0.0043117   1.2405382  )
       223           N   tau( 223) = (   0.7877487   0.1807839   1.2404973  )
       224           N   tau( 224) = (   0.6666690   0.1924500   1.0497374  )
       225           O   tau( 225) = (   0.6581189  -0.0030915   1.0756038  )
       226           Li  tau( 226) = (   0.9269746   0.0819278   1.3662407  )
       227           Li  tau( 227) = (   0.7814837   0.1664393   1.3675205  )
       228           Li  tau( 228) = (   0.7627765   0.0125309   1.3791914  )
       229           Li  tau( 229) = (   0.5677907   0.1975742   1.7909080  )
       230           Li  tau( 230) = (   0.7148133   0.0744963   1.7788807  )
       231           Li  tau( 231) = (   0.7103717   0.2529817   1.7887164  )
       232           Li  tau( 232) = (   0.7279627   0.0730090   1.5287264  )
       233           Li  tau( 233) = (   0.8989693   0.0151445   1.5271660  )
       234           Li  tau( 234) = (   0.8603977   0.1944709   1.5284985  )
       235           Li  tau( 235) = (   0.7629226   0.1702036   1.6392457  )
       236           Li  tau( 236) = (   0.6039083   0.2540927   1.6300177  )
       237           Li  tau( 237) = (   0.6186941   0.0969953   1.6325307  )
       238           Li  tau( 238) = (   0.5620500   0.0085270   1.5456219  )
       239           Li  tau( 239) = (   0.4360454   0.5471099   1.5998734  )
       240           Cr  tau( 240) = (   0.8398904   0.0881659   1.7178382  )
       241           Cr  tau( 241) = (   0.6639397   0.1864217   1.4567612  )
       242           N   tau( 242) = (   0.9388149   0.0867417   1.7472461  )
       243           N   tau( 243) = (   0.8398554   0.0849551   1.6118014  )
       244           N   tau( 244) = (   0.5655670   0.1911427   1.4316662  )
       245           N   tau( 245) = (   0.7007697   0.1012691   1.4155889  )
       246           N   tau( 246) = (   0.7270510   0.2635596   1.4252727  )
       247           N   tau( 247) = (   0.7851597  -0.0114494   1.7407298  )
       248           N   tau( 248) = (   0.7959948   0.1742962   1.7522195  )
       249           N   tau( 249) = (   0.6702631   0.1777116   1.5546103  )
       250           O   tau( 250) = (   0.6609650  -0.0137314   1.5741123  )
       251           Li  tau( 251) = (   0.7593284   0.3759836   0.8766270  )
       252           Li  tau( 252) = (   0.6280565   0.4696050   0.8766270  )
       253           Li  tau( 253) = (   0.6126161   0.3091127   0.8766270  )
       254           Li  tau( 254) = (   0.3968315   0.4919338   1.2848137  )
       255           Li  tau( 255) = (   0.5489362   0.3906676   1.2798578  )
       256           Li  tau( 256) = (   0.5518495   0.5439675   1.3063963  )
       257           Li  tau( 257) = (   0.5669941   0.3791318   1.0336250  )
       258           Li  tau( 258) = (   0.7214991   0.3014656   1.0336250  )
       259           Li  tau( 259) = (   0.7115055   0.4741032   1.0336250  )
       260           Li  tau( 260) = (   0.5898414   0.4976231   1.1400884  )
       261           Li  tau( 261) = (   0.4394700   0.5442819   1.1261092  )
       262           Li  tau( 262) = (   0.4607919   0.3855113   1.1297267  )
       263           Li  tau( 263) = (   0.5000000   0.2886750   0.9626942  )
       264           Li  tau( 264) = (   0.5068388   0.2947617   1.1974724  )
       265           Cr  tau( 265) = (   0.6676858   0.3848170   1.2050114  )
       266           Cr  tau( 266) = (   0.5000000   0.4811250   0.9478909  )
       267           N   tau( 267) = (   0.7626070   0.3885006   1.2361843  )
       268           N   tau( 268) = (   0.6610176   0.3989535   1.1029662  )
       269           N   tau( 269) = (   0.4030661   0.4869528   0.9168466  )
       270           N   tau( 270) = (   0.5434199   0.3942641   0.9168466  )
       271           N   tau( 271) = (   0.5535140   0.5621587   0.9168466  )
       272           N   tau( 272) = (   0.6121895   0.3040136   1.2368739  )
       273           N   tau( 273) = (   0.6200967   0.4690848   1.2529512  )
       274           N   tau( 274) = (   0.5000000   0.4811250   1.0497374  )
       275           O   tau( 275) = (   0.5001788   0.2863782   1.0808168  )
       276           Li  tau( 276) = (   0.7618239   0.3821644   1.3517938  )
       277           Li  tau( 277) = (   0.6272617   0.4531670   1.3796881  )
       278           Li  tau( 278) = (   0.6081278   0.3015532   1.3979044  )
       279           Li  tau( 279) = (   0.3518681   0.5596030   1.6954901  )
       280           Li  tau( 280) = (   0.5451825   0.3758404   1.8073360  )
       281           Li  tau( 281) = (   0.5589940   0.5710763   1.7941398  )
       282           Li  tau( 282) = (   0.5521271   0.3688151   1.5633473  )
       283           Li  tau( 283) = (   0.7327900   0.2835269   1.5518752  )
       284           Li  tau( 284) = (   0.7169873   0.4553750   1.5224965  )
       285           Li  tau( 285) = (   0.6199681   0.4807826   1.6062728  )
       286           Li  tau( 286) = (   0.4071628   0.4769283   1.7937307  )
       287           Li  tau( 287) = (   0.5096668   0.4622390   1.7022635  )
       288           Li  tau( 288) = (   0.4917503   0.3052637   1.4561241  )
       289           Li  tau( 289) = (   0.4933791   0.3029068   1.6863439  )
       290           Cr  tau( 290) = (   0.6555592   0.3829931   1.7157226  )
       291           Cr  tau( 291) = (   0.5111787   0.4769371   1.4490819  )
       292           N   tau( 292) = (   0.7548810   0.3920773   1.7331032  )
       293           N   tau( 293) = (   0.6688605   0.3765949   1.6101533  )
       294           N   tau( 294) = (   0.4070711   0.4800918   1.4269617  )
       295           N   tau( 295) = (   0.5450113   0.3929416   1.4119246  )
       296           N   tau( 296) = (   0.5612125   0.5603446   1.4179967  )
       297           N   tau( 297) = (   0.6136330   0.2988012   1.7646442  )
       298           N   tau( 298) = (   0.6116811   0.4716557   1.7500046  )
       299           N   tau( 299) = (   0.5120740   0.4824896   1.5516122  )
       300           O   tau( 300) = (   0.5041832   0.2696166   1.5812363  )

   Crystallographic axes

     site n.     atom                  positions (cryst. coord.)
         1           Li  tau(   1) = (  0.3097346  0.1512218  0.3321863  )
         2           Li  tau(   2) = (  0.2325188  0.3133799  0.3321863  )
         3           Li  tau(   3) = (  0.1244139  0.0353984  0.3321863  )
         4           Li  tau(   4) = (  0.0063782  0.3475805  0.4906081  )
         5           Li  tau(   5) = (  0.0831438  0.1409243  0.4891731  )
         6           Li  tau(   6) = (  0.2011000  0.4612562  0.4829590  )
         7           Li  tau(   7) = (  0.1192194  0.1566758  0.3916786  )
         8           Li  tau(   8) = (  0.2288830  0.0221536  0.3916786  )
         9           Li  tau(   9) = (  0.3185643  0.3211711  0.3916786  )
        10           Li  tau(  10) = (  0.2215384  0.3473902  0.4284516  )
        11           Li  tau(  11) = (  0.0998215  0.4745146  0.4222065  )
        12           Li  tau(  12) = (  0.0164420  0.1650328  0.4263279  )
        13           Li  tau(  13) = (  0.0000000  0.0000000  0.3648003  )
        14           Li  tau(  14) = (  0.9894158  1.0073029  0.4558548  )
        15           Cr  tau(  15) = (  0.2192437  0.1710051  0.4614377  )
        16           Cr  tau(  16) = (  0.1111111  0.3333332  0.3591908  )
        17           N   tau(  17) = (  0.3202926  0.1744872  0.4690116  )
        18           N   tau(  18) = (  0.2178389  0.1740509  0.4201093  )
        19           N   tau(  19) = (  0.0175419  0.3434273  0.3474270  )
        20           N   tau(  20) = (  0.1043816  0.1828847  0.3474270  )
        21           N   tau(  21) = (  0.2114100  0.4736876  0.3474270  )
        22           N   tau(  22) = (  0.1189271  0.0272432  0.4717045  )
        23           N   tau(  23) = (  0.2315578  0.3224890  0.4716115  )
        24           N   tau(  24) = (  0.1111111  0.3333332  0.3977842  )
        25           O   tau(  25) = ( -0.0003218  0.0007492  0.4130714  )
        26           Li  tau(  26) = (  0.3137852  0.1258540  0.5176326  )
        27           Li  tau(  27) = (  0.2351784  0.3194301  0.5167755  )
        28           Li  tau(  28) = (  0.0997992  0.0236073  0.5226929  )
        29           Li  tau(  29) = (  0.0242133  0.3639991  0.6707749  )
        30           Li  tau(  30) = (  0.1107762  0.1885502  0.6729983  )
        31           Li  tau(  31) = (  0.2134597  0.4614789  0.6786366  )
        32           Li  tau(  32) = (  0.1351345  0.1883296  0.5761084  )
        33           Li  tau(  33) = (  0.2367912  1.0289031  0.5770563  )
        34           Li  tau(  34) = (  0.3226575  0.3209393  0.5832438  )
        35           Li  tau(  35) = (  0.2069019  0.3462372  0.6184865  )
        36           Li  tau(  36) = (  0.1011750  0.4984045  0.6125980  )
        37           Li  tau(  37) = (  0.0307358  0.2145881  0.6169939  )
        38           Li  tau(  38) = (  0.0127152  1.0009976  0.5570454  )
        39           Li  tau(  39) = ( -0.0070047  0.0044235  0.6402868  )
        40           Cr  tau(  40) = (  0.2177929  0.1520357  0.6447470  )
        41           Cr  tau(  41) = (  0.1039019  0.3422936  0.5497063  )
        42           N   tau(  42) = (  0.3092841  0.1300113  0.6588117  )
        43           N   tau(  43) = (  0.2233828  0.1458134  0.6075111  )
        44           N   tau(  44) = (  0.0051056  0.3263669  0.5352119  )
        45           N   tau(  45) = (  0.1006450  0.1937582  0.5330615  )
        46           N   tau(  46) = (  0.2023410  0.5069529  0.5423627  )
        47           N   tau(  47) = (  0.1249520  0.0311954  0.6591439  )
        48           N   tau(  48) = (  0.2311327  0.3124284  0.6605037  )
        49           N   tau(  49) = (  0.1105228  0.3243597  0.5869665  )
        50           O   tau(  50) = (  0.0031087 -0.0021138  0.5984136  )
        51           Li  tau(  51) = (  0.3097348  0.6512226  0.3321863  )
        52           Li  tau(  52) = (  0.2325186  0.8133797  0.3321863  )
        53           Li  tau(  53) = (  0.1244139  0.5353989  0.3321863  )
        54           Li  tau(  54) = (  0.0185924  0.8618741  0.4841703  )
        55           Li  tau(  55) = (  0.1015889  0.6907770  0.4806957  )
        56           Li  tau(  56) = (  0.1795337  0.9333637  0.4802904  )
        57           Li  tau(  57) = (  0.1192194  0.6566756  0.3916786  )
        58           Li  tau(  58) = (  0.2288831  0.5221537  0.3916786  )
        59           Li  tau(  59) = (  0.3185642  0.8211709  0.3916786  )
        60           Li  tau(  60) = (  0.2143781  0.8604590  0.4223306  )
        61           Li  tau(  61) = (  0.1066754  0.9923572  0.4237922  )
        62           Li  tau(  62) = (  0.0188925  0.6795947  0.4244588  )
        63           Li  tau(  63) = ( -0.0000001  0.4999998  0.3648003  )
        64           Li  tau(  64) = (  0.9853188  0.5093256  0.4577638  )
        65           Cr  tau(  65) = (  0.2202300  0.6624342  0.4552502  )
        66           Cr  tau(  66) = (  0.1111110  0.8333330  0.3591908  )
        67           N   tau(  67) = (  0.3171253  0.6539415  0.4685797  )
        68           N   tau(  68) = (  0.2096814  0.6732034  0.4169381  )
        69           N   tau(  69) = (  0.0175418  0.8434271  0.3474270  )
        70           N   tau(  70) = (  0.1043818  0.6828855  0.3474270  )
        71           N   tau(  71) = (  0.2114098  0.9736874  0.3474270  )
        72           N   tau(  72) = (  0.1225779  0.5273728  0.4688145  )
        73           N   tau(  73) = (  0.2398551  0.8182334  0.4717887  )
        74           N   tau(  74) = (  0.1111110  0.8333330  0.3977842  )
        75           O   tau(  75) = (  1.0057519  0.5123117  0.4033849  )
        76           Li  tau(  76) = (  0.2912755  0.6348931  0.5156395  )
        77           Li  tau(  77) = (  0.2309620  0.8170794  0.5132389  )
        78           Li  tau(  78) = (  0.1146498  0.5242804  0.5147226  )
        79           Li  tau(  79) = (  0.0146777  0.8470691  0.6733460  )
        80           Li  tau(  80) = (  0.1062811  0.6934645  0.6672161  )
        81           Li  tau(  81) = (  0.2171034  0.9559802  0.6769248  )
        82           Li  tau(  82) = (  0.1497564  0.6765226  0.5745516  )
        83           Li  tau(  83) = (  0.2265326  0.5191615  0.5879077  )
        84           Li  tau(  84) = (  0.3198836  0.8371562  0.5795455  )
        85           Li  tau(  85) = (  0.2108996  0.8441326  0.6146243  )
        86           Li  tau(  86) = (  0.1041704  0.9747310  0.6085497  )
        87           Li  tau(  87) = (  0.0077187  0.6713429  0.6090148  )
        88           Li  tau(  88) = (  1.0029713  0.4986049  0.5463224  )
        89           Li  tau(  89) = (  0.9977524  0.5327407  0.6409822  )
        90           Cr  tau(  90) = (  0.2229977  0.6523158  0.6470081  )
        91           Cr  tau(  91) = (  0.1044462  0.8287303  0.5466147  )
        92           N   tau(  92) = (  0.3128179  0.6377355  0.6625699  )
        93           N   tau(  93) = (  0.2215966  0.6660803  0.6080891  )
        94           N   tau(  94) = (  0.0018554  0.8193600  0.5365406  )
        95           N   tau(  95) = (  0.1002253  0.6943461  0.5301693  )
        96           N   tau(  96) = (  0.2046224  0.9803165  0.5363767  )
        97           N   tau(  97) = (  0.1034722  0.5121477  0.6578395  )
        98           N   tau(  98) = (  0.2273829  0.7950510  0.6613408  )
        99           N   tau(  99) = (  0.1007734  0.8080462  0.5857573  )
       100           O   tau( 100) = (  0.9948554  0.4898085  0.6006083  )
       101           Li  tau( 101) = (  0.6430655  0.1512218  0.3321863  )
       102           Li  tau( 102) = (  0.5658521  0.3133799  0.3321863  )
       103           Li  tau( 103) = (  0.4577472  0.0353984  0.3321863  )
       104           Li  tau( 104) = (  0.3732541  0.3563587  0.4821972  )
       105           Li  tau( 105) = (  0.4424035  0.2039515  0.4800446  )
       106           Li  tau( 106) = (  0.5516482  0.4619709  0.4860018  )
       107           Li  tau( 107) = (  0.4525527  0.1566758  0.3916786  )
       108           Li  tau( 108) = (  0.5622164  0.0221536  0.3916786  )
       109           Li  tau( 109) = (  0.6518976  0.3211711  0.3916786  )
       110           Li  tau( 110) = (  0.5465602  0.3775833  0.4185414  )
       111           Li  tau( 111) = (  0.4365511  0.4936925  0.4262061  )
       112           Li  tau( 112) = (  0.3356300  0.1771311  0.4246891  )
       113           Li  tau( 113) = (  0.3333333  0.0000000  0.3648003  )
       114           Li  tau( 114) = (  0.3342062 -0.0130397  0.4532593  )
       115           Cr  tau( 115) = (  0.5549349  0.1796952  0.4584923  )
       116           Cr  tau( 116) = (  0.4444444  0.3333332  0.3591908  )
       117           N   tau( 117) = (  0.6559590  0.1766301  0.4699328  )
       118           N   tau( 118) = (  0.5573864  0.1681495  0.4211192  )
       119           N   tau( 119) = (  0.3508752  0.3434273  0.3474270  )
       120           N   tau( 120) = (  0.4377148  0.1828847  0.3474270  )
       121           N   tau( 121) = (  0.5447432  0.4736876  0.3474270  )
       122           N   tau( 122) = (  0.4618030  0.0367833  0.4720101  )
       123           N   tau( 123) = (  0.5691741  0.3323645  0.4701897  )
       124           N   tau( 124) = (  0.4444444  0.3333332  0.3977842  )
       125           O   tau( 125) = (  0.3483348  0.0120398  0.4085736  )
       126           Li  tau( 126) = (  0.6512941  1.0110998  0.5538896  )
       127           Li  tau( 127) = (  0.5639968  0.3010042  0.5202901  )
       128           Li  tau( 128) = (  0.6571112  0.1554358  0.5179094  )
       129           Li  tau( 129) = (  0.3464541  0.3106924  0.6720638  )
       130           Li  tau( 130) = (  0.4288869  0.1748243  0.6816639  )
       131           Li  tau( 131) = (  0.5522712  0.4601721  0.6756890  )
       132           Li  tau( 132) = (  0.4448887  0.1457547  0.5809296  )
       133           Li  tau( 133) = (  0.4457994  0.9713714  0.6128770  )
       134           Li  tau( 134) = (  0.6398308  0.2832242  0.5841031  )
       135           Li  tau( 135) = (  0.5402240  0.3456461  0.6121794  )
       136           Li  tau( 136) = (  0.4350391  0.4657172  0.6182806  )
       137           Li  tau( 137) = (  0.3416260  0.1965793  0.6158069  )
       138           Li  tau( 138) = (  0.4584166  0.0429328  0.5162440  )
       139           Li  tau( 139) = (  0.3394189  0.9995775  0.6358909  )
       140           Cr  tau( 140) = (  0.5495325  0.1533242  0.6471786  )
       141           Cr  tau( 141) = (  0.4499082  0.3279248  0.5499875  )
       142           N   tau( 142) = (  0.6561963  0.1482205  0.6595979  )
       143           N   tau( 143) = (  0.5548261  0.1565047  0.6086472  )
       144           N   tau( 144) = (  0.3506708  0.3409645  0.5388836  )
       145           N   tau( 145) = (  0.4230431  0.1626875  0.5366513  )
       146           N   tau( 146) = (  0.5469721  0.4688258  0.5334557  )
       147           N   tau( 147) = (  0.4516161  0.0034683  0.6592502  )
       148           N   tau( 148) = (  0.5456412  0.2865869  0.6577886  )
       149           N   tau( 149) = (  0.4461535  0.3304868  0.5870949  )
       150           O   tau( 150) = (  0.3168779  0.9925920  0.5949965  )
       151           Li  tau( 151) = (  0.6430682  0.6512226  0.3321863  )
       152           Li  tau( 152) = (  0.5658520  0.8133797  0.3321863  )
       153           Li  tau( 153) = (  0.4577474  0.5353989  0.3321863  )
       154           Li  tau( 154) = (  0.3749661  0.8443512  0.4859730  )
       155           Li  tau( 155) = (  0.4295478  0.6795350  0.4888564  )
       156           Li  tau( 156) = (  0.5623914  0.9943513  0.4842146  )
       157           Li  tau( 157) = (  0.4525527  0.6566756  0.3916786  )
       158           Li  tau( 158) = (  0.5622164  0.5221537  0.3916786  )
       159           Li  tau( 159) = (  0.6518976  0.8211709  0.3916786  )
       160           Li  tau( 160) = (  0.5330175  0.8435597  0.4272004  )
       161           Li  tau( 161) = (  0.4296151  0.9823380  0.4238719  )
       162           Li  tau( 162) = (  0.3468587  0.6884842  0.4171772  )
       163           Li  tau( 163) = (  0.3333333  0.4999998  0.3648003  )
       164           Li  tau( 164) = (  0.3403816  0.5440809  0.4540233  )
       165           Cr  tau( 165) = (  0.5601589  0.6760043  0.4586053  )
       166           Cr  tau( 166) = (  0.4444443  0.8333330  0.3591908  )
       167           N   tau( 167) = (  0.6523370  0.6688093  0.4671846  )
       168           N   tau( 168) = (  0.5591886  0.6618076  0.4207959  )
       169           N   tau( 169) = (  0.3508751  0.8434271  0.3474270  )
       170           N   tau( 170) = (  0.4377151  0.6828855  0.3474270  )
       171           N   tau( 171) = (  0.5447431  0.9736874  0.3474270  )
       172           N   tau( 172) = (  0.4571487  0.5299753  0.4693925  )
       173           N   tau( 173) = (  0.5644508  0.8259213  0.4707257  )
       174           N   tau( 174) = (  0.4444443  0.8333330  0.3977842  )
       175           O   tau( 175) = (  0.3359133  0.5274062  0.4026186  )
       176           Li  tau( 176) = (  0.6291003  0.6604755  0.5264023  )
       177           Li  tau( 177) = (  0.5716754  0.8307042  0.5259151  )
       178           Li  tau( 178) = (  0.4409721  0.5062838  0.5182217  )
       179           Li  tau( 179) = (  0.3493381  0.8243726  0.6694063  )
       180           Li  tau( 180) = (  0.4303769  0.6767362  0.6681617  )
       181           Li  tau( 181) = (  0.5395759  0.9632947  0.6765771  )
       182           Li  tau( 182) = (  0.4601463  0.6638473  0.5768835  )
       183           Li  tau( 183) = (  0.5632846  0.4959316  0.5814234  )
       184           Li  tau( 184) = (  0.6596945  0.7477803  0.5853233  )
       185           Li  tau( 185) = (  0.5377231  0.8214260  0.6149034  )
       186           Li  tau( 186) = (  0.3192115 -0.0140538  0.5509619  )
       187           Li  tau( 187) = (  0.3426285  0.6822893  0.6123677  )
       188           Li  tau( 188) = (  0.3247058  0.5003004  0.5553158  )
       189           Li  tau( 189) = (  0.3397109  0.4675170  0.6439032  )
       190           Cr  tau( 190) = (  0.5497171  0.6534435  0.6476104  )
       191           Cr  tau( 191) = (  0.4377327  0.8236458  0.5473765  )
       192           N   tau( 192) = (  0.6409267  0.6384917  0.6614050  )
       193           N   tau( 193) = (  0.5581566  0.6525578  0.6079961  )
       194           N   tau( 194) = (  0.3554482  0.8435850  0.5346162  )
       195           N   tau( 195) = (  0.4295703  0.6686534  0.5361686  )
       196           N   tau( 196) = (  0.5410636  0.9717692  0.5359892  )
       197           N   tau( 197) = (  0.4515678  0.4931823  0.6602246  )
       198           N   tau( 198) = (  0.5442669  0.7994371  0.6600098  )
       199           N   tau( 199) = (  0.4362175  0.8353828  0.5860297  )
       200           O   tau( 200) = (  0.3374725  0.4881454  0.6039966  )
       201           Li  tau( 201) = (  0.9764000  0.1512218  0.3321863  )
       202           Li  tau( 202) = (  0.8991866  0.3133799  0.3321863  )
       203           Li  tau( 203) = (  0.7910799  0.0353984  0.3321863  )
       204           Li  tau( 204) = (  0.6974383  0.3706232  0.4853795  )
       205           Li  tau( 205) = (  0.7717185  0.2060610  0.4836477  )
       206           Li  tau( 206) = (  0.8728147  0.4773003  0.4892506  )
       207           Li  tau( 207) = (  0.7858861  0.1566758  0.3916786  )
       208           Li  tau( 208) = (  0.8955479  0.0221536  0.3916786  )
       209           Li  tau( 209) = (  0.9852327  0.3211711  0.3916786  )
       210           Li  tau( 210) = (  0.8662243  0.3147090  0.4206253  )
       211           Li  tau( 211) = (  0.7526239  0.4342598  0.4266423  )
       212           Li  tau( 212) = (  0.6795361  0.1823331  0.4217481  )
       213           Li  tau( 213) = (  0.6666690  0.0000000  0.3648003  )
       214           Li  tau( 214) = (  0.6630215  0.0033465  0.4471515  )
       215           Cr  tau( 215) = (  0.8789136  0.1481547  0.4551993  )
       216           Cr  tau( 216) = (  0.7777800  0.3333332  0.3591908  )
       217           N   tau( 217) = (  0.9726227  0.1395567  0.4696029  )
       218           N   tau( 218) = (  0.8610609  0.1436351  0.4169491  )
       219           N   tau( 219) = (  0.6842085  0.3434273  0.3474270  )
       220           N   tau( 220) = (  0.7710469  0.1828847  0.3474270  )
       221           N   tau( 221) = (  0.8780741  0.4736876  0.3474270  )
       222           N   tau( 222) = (  0.7822958  0.0074681  0.4700856  )
       223           N   tau( 223) = (  0.8921243  0.3131268  0.4700701  )
       224           N   tau( 224) = (  0.7777800  0.3333332  0.3977842  )
       225           O   tau( 225) = (  0.6563341 -0.0053546  0.4075859  )
       226           Li  tau( 226) = (  0.9742756  0.1419031  0.5177189  )
       227           Li  tau( 227) = (  0.8775775  0.2882814  0.5182039  )
       228           Li  tau( 228) = (  0.7700112  0.0217041  0.5226264  )
       229           Li  tau( 229) = (  0.6818602  0.3422085  0.6786410  )
       230           Li  tau( 230) = (  0.7578238  0.1290315  0.6740835  )
       231           Li  tau( 231) = (  0.8564308  0.4381771  0.6778106  )
       232           Li  tau( 232) = (  0.7701145  0.1264553  0.5792908  )
       233           Li  tau( 233) = (  0.9077130  0.0262311  0.5786995  )
       234           Li  tau( 234) = (  0.9726755  0.3368335  0.5792044  )
       235           Li  tau( 235) = (  0.8611897  0.2948012  0.6211706  )
       236           Li  tau( 236) = (  0.7506088  0.4401014  0.6176738  )
       237           Li  tau( 237) = (  0.6746943  0.1680007  0.6186261  )
       238           Li  tau( 238) = (  0.5669730  0.0147691  0.5856931  )
       239           Li  tau( 239) = (  0.7519194  0.9476221  0.6062510  )
       240           Cr  tau( 240) = (  0.8907930  0.1527078  0.6509522  )
       241           Cr  tau( 241) = (  0.7715704  0.3228919  0.5520205  )
       242           N   tau( 242) = (  0.9888952  0.1502410  0.6620960  )
       243           N   tau( 243) = (  0.8889042  0.1471465  0.6107710  )
       244           N   tau( 244) = (  0.6759233  0.3310688  0.5425111  )
       245           N   tau( 245) = (  0.7592375  0.1754033  0.5364188  )
       246           N   tau( 246) = (  0.8792173  0.4564987  0.5400884  )
       247           N   tau( 247) = (  0.7785494 -0.0198309  0.6596267  )
       248           N   tau( 248) = (  0.8966248  0.3018899  0.6639806  )
       249           N   tau( 249) = (  0.7728650  0.3078055  0.5890991  )
       250           O   tau( 250) = (  0.6530372 -0.0237834  0.5964892  )
       251           Li  tau( 251) = (  0.9764026  0.6512226  0.3321863  )
       252           Li  tau( 252) = (  0.8991830  0.8133797  0.3321863  )
       253           Li  tau( 253) = (  0.7910824  0.5353989  0.3321863  )
       254           Li  tau( 254) = (  0.6808496  0.8520544  0.4868633  )
       255           Li  tau( 255) = (  0.7744883  0.6766562  0.4849853  )
       256           Li  tau( 256) = (  0.8659093  0.9421793  0.4950417  )
       257           Li  tau( 257) = (  0.7858860  0.6566756  0.3916786  )
       258           Li  tau( 258) = (  0.8955503  0.5221537  0.3916786  )
       259           Li  tau( 259) = (  0.9852291  0.8211709  0.3916786  )
       260           Li  tau( 260) = (  0.8771442  0.8619086  0.4320215  )
       261           Li  tau( 261) = (  0.7537113  0.9427239  0.4267243  )
       262           Li  tau( 262) = (  0.6833670  0.6677252  0.4280951  )
       263           Li  tau( 263) = (  0.6666666  0.4999998  0.3648003  )
       264           Li  tau( 264) = (  0.6770196  0.5105423  0.4537664  )
       265           Cr  tau( 265) = (  0.8898601  0.6665226  0.4566232  )
       266           Cr  tau( 266) = (  0.7777776  0.8333330  0.3591908  )
       267           N   tau( 267) = (  0.9869080  0.6729028  0.4684358  )
       268           N   tau( 268) = (  0.8913536  0.6910078  0.4179546  )
       269           N   tau( 269) = (  0.6842084  0.8434271  0.3474270  )
       270           N   tau( 270) = (  0.7710484  0.6828855  0.3474270  )
       271           N   tau( 271) = (  0.8780764  0.9736874  0.3474270  )
       272           N   tau( 272) = (  0.7877119  0.5265671  0.4686971  )
       273           N   tau( 273) = (  0.8909230  0.8124788  0.4747894  )
       274           N   tau( 274) = (  0.7777776  0.8333330  0.3977842  )
       275           O   tau( 275) = (  0.6655194  0.4960217  0.4095613  )
       276           Li  tau( 276) = (  0.9824666  0.6619281  0.5122445  )
       277           Li  tau( 277) = (  0.8888978  0.7849084  0.5228147  )
       278           Li  tau( 278) = (  0.7822297  0.5223055  0.5297175  )
       279           Li  tau( 279) = (  0.6749551  0.9692608  0.6424837  )
       280           Li  tau( 280) = (  0.7621740  0.6509746  0.6848662  )
       281           Li  tau( 281) = (  0.8887051  0.9891332  0.6798657  )
       282           Li  tau( 282) = (  0.7650626  0.6388065  0.5924099  )
       283           Li  tau( 283) = (  0.8964843  0.4910830  0.5880627  )
       284           Li  tau( 284) = (  0.9798982  0.7887326  0.5769300  )
       285           Li  tau( 285) = (  0.8975481  0.8327398  0.6086760  )
       286           Li  tau( 286) = (  0.6825175  0.8260641  0.6797107  )
       287           Li  tau( 287) = (  0.7765406  0.8006214  0.6450504  )
       288           Li  tau( 288) = (  0.6679944  0.5287323  0.5517791  )
       289           Li  tau( 289) = (  0.6682624  0.5246499  0.6390179  )
       290           Cr  tau( 290) = (  0.8766803  0.6633634  0.6501505  )
       291           Cr  tau( 291) = (  0.7865385  0.8260793  0.5491105  )
       292           N   tau( 292) = (  0.9812469  0.6790977  0.6567367  )
       293           N   tau( 293) = (  0.8862877  0.6522814  0.6101465  )
       294           N   tau( 294) = (  0.6842522  0.8315433  0.5407284  )
       295           N   tau( 295) = (  0.7718762  0.6805948  0.5350303  )
       296           N   tau( 296) = (  0.8847276  0.9705454  0.5373312  )
       297           N   tau( 297) = (  0.7861460  0.5175389  0.6686887  )
       298           N   tau( 298) = (  0.8839916  0.8169316  0.6631412  )
       299           N   tau( 299) = (  0.7906396  0.8356966  0.5879631  )
       300           O   tau( 300) = (  0.6598464  0.4669896  0.5991887  )

     number of k points=     1  Gaussian smearing, width (Ry)=  0.0147
                       cart. coord. in units 2pi/alat
        k(    1) = (   0.0000000   0.0000000   0.0000000), wk =   2.0000000

                       cryst. coord.
        k(    1) = (   0.0000000   0.0000000   0.0000000), wk =   2.0000000

     Dense  grid:  5457965 G-vectors     FFT dimensions: ( 240, 160, 640)

     Smooth grid:  2970742 G-vectors     FFT dimensions: ( 200, 135, 540)

     Dynamical RAM for                 wfc:    1182.84 MB

     Dynamical RAM for     wfc (w. buffer):    1182.84 MB

     Dynamical RAM for           str. fact:      83.28 MB

     Dynamical RAM for           local pot:       0.00 MB

     Dynamical RAM for          nlocal pot:    3977.76 MB

     Dynamical RAM for                qrad:       7.46 MB

     Dynamical RAM for          rho,v,vnew:     203.09 MB

     Dynamical RAM for               rhoin:      67.70 MB

     Dynamical RAM for            rho*nmix:     333.13 MB

     Dynamical RAM for           G-vectors:      83.74 MB

     Dynamical RAM for          h,s,v(r/c):      63.83 MB

     Dynamical RAM for          <psi|beta>:      17.89 MB

     Dynamical RAM for                 psi:    2365.69 MB

     Dynamical RAM for                hpsi:    2365.69 MB

     Dynamical RAM for                spsi:    2365.69 MB

     Dynamical RAM for      wfcinit/wfcrot:    4336.08 MB

     Dynamical RAM for           addusdens:    7370.47 MB

     Dynamical RAM for          addusforce:   14335.60 MB

     Dynamical RAM for         addusstress:    4184.93 MB

     Estimated static dynamical RAM per process >       5.81 GB

     Estimated max dynamical RAM per process >      20.13 GB

     Estimated total dynamical RAM >      80.52 GB

     Check: negative core charge=   -0.000002

     Initial potential from superposition of free atoms

     starting charge    1292.2742, renormalised to    1392.0000

     negative rho (up, down):  2.526E-02 0.000E+00
     Starting wfcs are 1512 randomized atomic wfcs
     Checking if some PAW data can be deallocated... 

     total cpu time spent up to now is       37.2 secs

     per-process dynamical memory:  1708.6 Mb

     Self-consistent Calculation
[tb_dev] Currently allocated     1.26E+02 Mbytes, locked:    0 /  11
[tb_pin] Currently allocated     0.00E+00 Mbytes, locked:    0 /   0

     iteration #  1     ecut=    90.00 Ry     beta= 0.20
     Davidson diagonalization with overlap

---- Real-time Memory Report at c_bands before calling an iterative solver
         10171 MiB given to the printing process from OS
          1746 MiB allocation reported by mallinfo(arena+hblkhd)
        465834 MiB available memory on the node where the printing process lives
     GPU memory used/free/total (MiB): 16367 / 48601 / 64969
------------------
     ethr =  1.00E-02,  avg # of iterations =  3.0

     negative rho (up, down):  4.179E-02 0.000E+00

     total cpu time spent up to now is       41.0 secs

     total energy              =   -9071.49901153 Ry
     estimated scf accuracy    <     238.10439822 Ry
[tb_dev] Currently allocated     2.41E+01 Mbytes, locked:    0 /   6
[tb_pin] Currently allocated     0.00E+00 Mbytes, locked:    0 /   0

     iteration #  2     ecut=    90.00 Ry     beta= 0.20
     Davidson diagonalization with overlap

---- Real-time Memory Report at c_bands before calling an iterative solver
         10502 MiB given to the printing process from OS
          2013 MiB allocation reported by mallinfo(arena+hblkhd)
        464864 MiB available memory on the node where the printing process lives
     GPU memory used/free/total (MiB): 31251 / 33717 / 64969
------------------
     ethr =  1.00E-02,  avg # of iterations =  4.0

     negative rho (up, down):  6.977E-02 0.000E+00

     total cpu time spent up to now is       44.7 secs

     total energy              =   -9063.81190955 Ry
     estimated scf accuracy    <      50.93070756 Ry
[tb_dev] Currently allocated     2.41E+01 Mbytes, locked:    0 /   6
[tb_pin] Currently allocated     0.00E+00 Mbytes, locked:    0 /   0

     iteration #  3     ecut=    90.00 Ry     beta= 0.20
     Davidson diagonalization with overlap

---- Real-time Memory Report at c_bands before calling an iterative solver
         10537 MiB given to the printing process from OS
         -2047 MiB allocation reported by mallinfo(arena+hblkhd)
        464735 MiB available memory on the node where the printing process lives
     GPU memory used/free/total (MiB): 31251 / 33717 / 64969
------------------
     ethr =  3.66E-03,  avg # of iterations =  7.0

     negative rho (up, down):  5.882E-02 0.000E+00

     total cpu time spent up to now is       50.2 secs

     total energy              =   -9121.87990782 Ry
     estimated scf accuracy    <     689.58631585 Ry
[tb_dev] Currently allocated     2.41E+01 Mbytes, locked:    0 /   6
[tb_pin] Currently allocated     0.00E+00 Mbytes, locked:    0 /   0

     iteration #  4     ecut=    90.00 Ry     beta= 0.20
     Davidson diagonalization with overlap

---- Real-time Memory Report at c_bands before calling an iterative solver
         10541 MiB given to the printing process from OS
         -2024 MiB allocation reported by mallinfo(arena+hblkhd)
        464495 MiB available memory on the node where the printing process lives
     GPU memory used/free/total (MiB): 31251 / 33717 / 64969
------------------
     ethr =  3.66E-03,  avg # of iterations =  1.0

     negative rho (up, down):  4.491E-02 0.000E+00

     total cpu time spent up to now is       53.5 secs

     total energy              =   -9084.61384286 Ry
     estimated scf accuracy    <     914.91898222 Ry
[tb_dev] Currently allocated     2.41E+01 Mbytes, locked:    0 /   6
[tb_pin] Currently allocated     0.00E+00 Mbytes, locked:    0 /   0

     iteration #  5     ecut=    90.00 Ry     beta= 0.20
     Davidson diagonalization with overlap

---- Real-time Memory Report at c_bands before calling an iterative solver
         10564 MiB given to the printing process from OS
         -2000 MiB allocation reported by mallinfo(arena+hblkhd)
        464496 MiB available memory on the node where the printing process lives
     GPU memory used/free/total (MiB): 31251 / 33717 / 64969
------------------
     ethr =  3.66E-03,  avg # of iterations =  2.0

     negative rho (up, down):  3.719E-02 0.000E+00

     total cpu time spent up to now is       56.9 secs

     total energy              =   -9091.10796114 Ry
     estimated scf accuracy    <      56.80454517 Ry
[tb_dev] Currently allocated     2.41E+01 Mbytes, locked:    0 /   6
[tb_pin] Currently allocated     0.00E+00 Mbytes, locked:    0 /   0

     iteration #  6     ecut=    90.00 Ry     beta= 0.20
     Davidson diagonalization with overlap

---- Real-time Memory Report at c_bands before calling an iterative solver
         10588 MiB given to the printing process from OS
         -1977 MiB allocation reported by mallinfo(arena+hblkhd)
        464260 MiB available memory on the node where the printing process lives
     GPU memory used/free/total (MiB): 31275 / 33693 / 64969
------------------
     ethr =  3.66E-03,  avg # of iterations =  2.0

     negative rho (up, down):  2.133E-02 0.000E+00

     total cpu time spent up to now is       60.3 secs

     total energy              =   -9104.75867596 Ry
     estimated scf accuracy    <       6.60482582 Ry
[tb_dev] Currently allocated     2.41E+01 Mbytes, locked:    0 /   6
[tb_pin] Currently allocated     0.00E+00 Mbytes, locked:    0 /   0

     iteration #  7     ecut=    90.00 Ry     beta= 0.20
     Davidson diagonalization with overlap

---- Real-time Memory Report at c_bands before calling an iterative solver
         10611 MiB given to the printing process from OS
         -1953 MiB allocation reported by mallinfo(arena+hblkhd)
        464166 MiB available memory on the node where the printing process lives
     GPU memory used/free/total (MiB): 31275 / 33693 / 64969
------------------
     ethr =  4.74E-04,  avg # of iterations = 19.0

     negative rho (up, down):  3.055E-02 0.000E+00

     total cpu time spent up to now is       66.7 secs

     total energy              =   -9085.76045448 Ry
     estimated scf accuracy    <     154.67300525 Ry
[tb_dev] Currently allocated     2.41E+01 Mbytes, locked:    0 /   6
[tb_pin] Currently allocated     0.00E+00 Mbytes, locked:    0 /   0

     iteration #  8     ecut=    90.00 Ry     beta= 0.20
     Davidson diagonalization with overlap

---- Real-time Memory Report at c_bands before calling an iterative solver
         10635 MiB given to the printing process from OS
         -1930 MiB allocation reported by mallinfo(arena+hblkhd)
        464071 MiB available memory on the node where the printing process lives
     GPU memory used/free/total (MiB): 31453 / 33515 / 64969
------------------
     ethr =  4.74E-04,  avg # of iterations = 18.0

     negative rho (up, down):  3.283E-02 0.000E+00

     total cpu time spent up to now is       73.8 secs

     total energy              =   -9095.04860499 Ry
     estimated scf accuracy    <       8.05865978 Ry
[tb_dev] Currently allocated     2.41E+01 Mbytes, locked:    0 /   6
[tb_pin] Currently allocated     0.00E+00 Mbytes, locked:    0 /   0

     iteration #  9     ecut=    90.00 Ry     beta= 0.20
     Davidson diagonalization with overlap

---- Real-time Memory Report at c_bands before calling an iterative solver
         10667 MiB given to the printing process from OS
         -1918 MiB allocation reported by mallinfo(arena+hblkhd)
        464140 MiB available memory on the node where the printing process lives
     GPU memory used/free/total (MiB): 31829 / 33139 / 64969
------------------
     ethr =  4.74E-04,  avg # of iterations =  3.0

     negative rho (up, down):  3.301E-02 0.000E+00

     total cpu time spent up to now is       77.6 secs

     total energy              =   -9095.87043379 Ry
     estimated scf accuracy    <       0.75749699 Ry
[tb_dev] Currently allocated     2.41E+01 Mbytes, locked:    0 /   6
[tb_pin] Currently allocated     0.00E+00 Mbytes, locked:    0 /   0

     iteration # 10     ecut=    90.00 Ry     beta= 0.20
     Davidson diagonalization with overlap

---- Real-time Memory Report at c_bands before calling an iterative solver
         10693 MiB given to the printing process from OS
         -1892 MiB allocation reported by mallinfo(arena+hblkhd)
        463850 MiB available memory on the node where the printing process lives
     GPU memory used/free/total (MiB): 31829 / 33139 / 64969
------------------
     c_bands:  2 eigenvalues not converged
     ethr =  5.44E-05,  avg # of iterations = 20.0

     negative rho (up, down):  3.216E-02 0.000E+00

     total cpu time spent up to now is       83.9 secs

     total energy              =   -9095.72617423 Ry
     estimated scf accuracy    <       2.10604015 Ry
[tb_dev] Currently allocated     2.41E+01 Mbytes, locked:    0 /   6
[tb_pin] Currently allocated     0.00E+00 Mbytes, locked:    0 /   0

     iteration # 11     ecut=    90.00 Ry     beta= 0.20
     Davidson diagonalization with overlap

---- Real-time Memory Report at c_bands before calling an iterative solver
         10693 MiB given to the printing process from OS
         -1892 MiB allocation reported by mallinfo(arena+hblkhd)
        463850 MiB available memory on the node where the printing process lives
     GPU memory used/free/total (MiB): 31829 / 33139 / 64969
------------------
     ethr =  5.44E-05,  avg # of iterations =  5.0

     negative rho (up, down):  3.272E-02 0.000E+00

     total cpu time spent up to now is       87.7 secs

     total energy              =   -9095.98096107 Ry
     estimated scf accuracy    <       0.57467940 Ry
[tb_dev] Currently allocated     2.41E+01 Mbytes, locked:    0 /   6
[tb_pin] Currently allocated     0.00E+00 Mbytes, locked:    0 /   0

     iteration # 12     ecut=    90.00 Ry     beta= 0.20
     Davidson diagonalization with overlap

---- Real-time Memory Report at c_bands before calling an iterative solver
         10693 MiB given to the printing process from OS
         -1892 MiB allocation reported by mallinfo(arena+hblkhd)
        463849 MiB available memory on the node where the printing process lives
     GPU memory used/free/total (MiB): 32033 / 32935 / 64969
------------------
     ethr =  4.13E-05,  avg # of iterations =  1.0

     negative rho (up, down):  3.686E-02 0.000E+00

     total cpu time spent up to now is       91.1 secs

     total energy              =   -9095.74979510 Ry
     estimated scf accuracy    <       0.62863606 Ry
[tb_dev] Currently allocated     2.41E+01 Mbytes, locked:    0 /   6
[tb_pin] Currently allocated     0.00E+00 Mbytes, locked:    0 /   0

     iteration # 13     ecut=    90.00 Ry     beta= 0.20
     Davidson diagonalization with overlap

---- Real-time Memory Report at c_bands before calling an iterative solver
         10693 MiB given to the printing process from OS
         -1892 MiB allocation reported by mallinfo(arena+hblkhd)
        463849 MiB available memory on the node where the printing process lives
     GPU memory used/free/total (MiB): 32033 / 32935 / 64969
------------------
     c_bands:  2 eigenvalues not converged
     ethr =  4.13E-05,  avg # of iterations = 20.0

     negative rho (up, down):  3.722E-02 0.000E+00

     total cpu time spent up to now is       95.9 secs

     total energy              =   -9095.71081464 Ry
     estimated scf accuracy    <       1.24810904 Ry
[tb_dev] Currently allocated     2.41E+01 Mbytes, locked:    0 /   6
[tb_pin] Currently allocated     0.00E+00 Mbytes, locked:    0 /   0

     iteration # 14     ecut=    90.00 Ry     beta= 0.20
     Davidson diagonalization with overlap

---- Real-time Memory Report at c_bands before calling an iterative solver
         10693 MiB given to the printing process from OS
         -1892 MiB allocation reported by mallinfo(arena+hblkhd)
        463849 MiB available memory on the node where the printing process lives
     GPU memory used/free/total (MiB): 32033 / 32935 / 64969
------------------
     ethr =  4.13E-05,  avg # of iterations =  2.0

     negative rho (up, down):  3.756E-02 0.000E+00

     total cpu time spent up to now is       99.5 secs

     total energy              =   -9095.88412793 Ry
     estimated scf accuracy    <       0.20500871 Ry
[tb_dev] Currently allocated     2.41E+01 Mbytes, locked:    0 /   6
[tb_pin] Currently allocated     0.00E+00 Mbytes, locked:    0 /   0

     iteration # 15     ecut=    90.00 Ry     beta= 0.20
     Davidson diagonalization with overlap

---- Real-time Memory Report at c_bands before calling an iterative solver
         10693 MiB given to the printing process from OS
         -1892 MiB allocation reported by mallinfo(arena+hblkhd)
        464040 MiB available memory on the node where the printing process lives
     GPU memory used/free/total (MiB): 32033 / 32935 / 64969
------------------
     ethr =  1.47E-05,  avg # of iterations = 22.0

     negative rho (up, down):  3.843E-02 0.000E+00

     total cpu time spent up to now is      105.6 secs

     total energy              =   -9095.88217640 Ry
     estimated scf accuracy    <       0.11128859 Ry
[tb_dev] Currently allocated     2.41E+01 Mbytes, locked:    0 /   6
[tb_pin] Currently allocated     0.00E+00 Mbytes, locked:    0 /   0

     iteration # 16     ecut=    90.00 Ry     beta= 0.20
     Davidson diagonalization with overlap

---- Real-time Memory Report at c_bands before calling an iterative solver
         10693 MiB given to the printing process from OS
         -1892 MiB allocation reported by mallinfo(arena+hblkhd)
        463849 MiB available memory on the node where the printing process lives
     GPU memory used/free/total (MiB): 32033 / 32935 / 64969
------------------
     c_bands:  4 eigenvalues not converged
     ethr =  7.99E-06,  avg # of iterations = 20.0

     negative rho (up, down):  3.902E-02 0.000E+00

     total cpu time spent up to now is      109.9 secs

     total energy              =   -9095.88486272 Ry
     estimated scf accuracy    <       0.01722449 Ry
[tb_dev] Currently allocated     2.41E+01 Mbytes, locked:    0 /   6
[tb_pin] Currently allocated     0.00E+00 Mbytes, locked:    0 /   0

     iteration # 17     ecut=    90.00 Ry     beta= 0.20
     Davidson diagonalization with overlap

---- Real-time Memory Report at c_bands before calling an iterative solver
         10693 MiB given to the printing process from OS
         -1892 MiB allocation reported by mallinfo(arena+hblkhd)
        463847 MiB available memory on the node where the printing process lives
     GPU memory used/free/total (MiB): 32033 / 32935 / 64969
------------------
     c_bands:  3 eigenvalues not converged
     ethr =  1.24E-06,  avg # of iterations = 20.0

     negative rho (up, down):  3.959E-02 0.000E+00

     total cpu time spent up to now is      114.6 secs

     total energy              =   -9095.88522277 Ry
     estimated scf accuracy    <       0.00832428 Ry
[tb_dev] Currently allocated     2.41E+01 Mbytes, locked:    0 /   6
[tb_pin] Currently allocated     0.00E+00 Mbytes, locked:    0 /   0

     iteration # 18     ecut=    90.00 Ry     beta= 0.20
     Davidson diagonalization with overlap

---- Real-time Memory Report at c_bands before calling an iterative solver
         10693 MiB given to the printing process from OS
         -1892 MiB allocation reported by mallinfo(arena+hblkhd)
        463849 MiB available memory on the node where the printing process lives
     GPU memory used/free/total (MiB): 32033 / 32935 / 64969
------------------
     ethr =  5.98E-07,  avg # of iterations = 11.0

     negative rho (up, down):  3.996E-02 0.000E+00

     total cpu time spent up to now is      118.6 secs

     total energy              =   -9095.88598132 Ry
     estimated scf accuracy    <       0.00205788 Ry
[tb_dev] Currently allocated     2.41E+01 Mbytes, locked:    0 /   6
[tb_pin] Currently allocated     0.00E+00 Mbytes, locked:    0 /   0

     iteration # 19     ecut=    90.00 Ry     beta= 0.20
     Davidson diagonalization with overlap

---- Real-time Memory Report at c_bands before calling an iterative solver
         10693 MiB given to the printing process from OS
         -1892 MiB allocation reported by mallinfo(arena+hblkhd)
        463849 MiB available memory on the node where the printing process lives
     GPU memory used/free/total (MiB): 32033 / 32935 / 64969
------------------
     ethr =  1.48E-07,  avg # of iterations =  2.0

     negative rho (up, down):  4.021E-02 0.000E+00

     total cpu time spent up to now is      122.3 secs

     total energy              =   -9095.88610856 Ry
     estimated scf accuracy    <       0.00079692 Ry
[tb_dev] Currently allocated     2.41E+01 Mbytes, locked:    0 /   6
[tb_pin] Currently allocated     0.00E+00 Mbytes, locked:    0 /   0

     iteration # 20     ecut=    90.00 Ry     beta= 0.20
     Davidson diagonalization with overlap

---- Real-time Memory Report at c_bands before calling an iterative solver
         10693 MiB given to the printing process from OS
         -1892 MiB allocation reported by mallinfo(arena+hblkhd)
        463896 MiB available memory on the node where the printing process lives
     GPU memory used/free/total (MiB): 32033 / 32935 / 64969
------------------
     ethr =  5.72E-08,  avg # of iterations =  2.0

     negative rho (up, down):  4.043E-02 0.000E+00

     total cpu time spent up to now is      125.8 secs

     total energy              =   -9095.88616331 Ry
     estimated scf accuracy    <       0.00034701 Ry
[tb_dev] Currently allocated     2.41E+01 Mbytes, locked:    0 /   6
[tb_pin] Currently allocated     0.00E+00 Mbytes, locked:    0 /   0

     iteration # 21     ecut=    90.00 Ry     beta= 0.20
     Davidson diagonalization with overlap

---- Real-time Memory Report at c_bands before calling an iterative solver
         10693 MiB given to the printing process from OS
         -1892 MiB allocation reported by mallinfo(arena+hblkhd)
        463849 MiB available memory on the node where the printing process lives
     GPU memory used/free/total (MiB): 32033 / 32935 / 64969
------------------
     ethr =  2.49E-08,  avg # of iterations =  2.0

     negative rho (up, down):  4.059E-02 0.000E+00

     total cpu time spent up to now is      129.5 secs

     total energy              =   -9095.88618101 Ry
     estimated scf accuracy    <       0.00015637 Ry
[tb_dev] Currently allocated     2.41E+01 Mbytes, locked:    0 /   6
[tb_pin] Currently allocated     0.00E+00 Mbytes, locked:    0 /   0

     iteration # 22     ecut=    90.00 Ry     beta= 0.20
     Davidson diagonalization with overlap

---- Real-time Memory Report at c_bands before calling an iterative solver
         10693 MiB given to the printing process from OS
         -1892 MiB allocation reported by mallinfo(arena+hblkhd)
        463849 MiB available memory on the node where the printing process lives
     GPU memory used/free/total (MiB): 32033 / 32935 / 64969
------------------
     ethr =  1.12E-08,  avg # of iterations =  2.0

     negative rho (up, down):  4.067E-02 0.000E+00

     total cpu time spent up to now is      133.1 secs

     total energy              =   -9095.88619043 Ry
     estimated scf accuracy    <       0.00005189 Ry
[tb_dev] Currently allocated     2.41E+01 Mbytes, locked:    0 /   6
[tb_pin] Currently allocated     0.00E+00 Mbytes, locked:    0 /   0

     iteration # 23     ecut=    90.00 Ry     beta= 0.20
     Davidson diagonalization with overlap

---- Real-time Memory Report at c_bands before calling an iterative solver
         10693 MiB given to the printing process from OS
         -1892 MiB allocation reported by mallinfo(arena+hblkhd)
        463849 MiB available memory on the node where the printing process lives
     GPU memory used/free/total (MiB): 32033 / 32935 / 64969
------------------
     ethr =  3.73E-09,  avg # of iterations =  4.0

     negative rho (up, down):  4.073E-02 0.000E+00

     total cpu time spent up to now is      137.1 secs

     total energy              =   -9095.88619637 Ry
     estimated scf accuracy    <       0.00001530 Ry
[tb_dev] Currently allocated     2.41E+01 Mbytes, locked:    0 /   6
[tb_pin] Currently allocated     0.00E+00 Mbytes, locked:    0 /   0

     iteration # 24     ecut=    90.00 Ry     beta= 0.20
     Davidson diagonalization with overlap

---- Real-time Memory Report at c_bands before calling an iterative solver
         10693 MiB given to the printing process from OS
         -1892 MiB allocation reported by mallinfo(arena+hblkhd)
        463896 MiB available memory on the node where the printing process lives
     GPU memory used/free/total (MiB): 32033 / 32935 / 64969
------------------
     ethr =  1.10E-09,  avg # of iterations =  4.0

     negative rho (up, down):  4.077E-02 0.000E+00

     total cpu time spent up to now is      141.2 secs

     total energy              =   -9095.88619969 Ry
     estimated scf accuracy    <       0.00000608 Ry
[tb_dev] Currently allocated     2.41E+01 Mbytes, locked:    0 /   6
[tb_pin] Currently allocated     0.00E+00 Mbytes, locked:    0 /   0

     iteration # 25     ecut=    90.00 Ry     beta= 0.20
     Davidson diagonalization with overlap

---- Real-time Memory Report at c_bands before calling an iterative solver
         10693 MiB given to the printing process from OS
         -1892 MiB allocation reported by mallinfo(arena+hblkhd)
        463849 MiB available memory on the node where the printing process lives
     GPU memory used/free/total (MiB): 32033 / 32935 / 64969
------------------
     ethr =  4.37E-10,  avg # of iterations =  2.0

     negative rho (up, down):  4.079E-02 0.000E+00

     total cpu time spent up to now is      144.9 secs

     total energy              =   -9095.88620034 Ry
     estimated scf accuracy    <       0.00000262 Ry
[tb_dev] Currently allocated     2.41E+01 Mbytes, locked:    0 /   6
[tb_pin] Currently allocated     0.00E+00 Mbytes, locked:    0 /   0

     iteration # 26     ecut=    90.00 Ry     beta= 0.20
     Davidson diagonalization with overlap

---- Real-time Memory Report at c_bands before calling an iterative solver
         10693 MiB given to the printing process from OS
         -1892 MiB allocation reported by mallinfo(arena+hblkhd)
        463849 MiB available memory on the node where the printing process lives
     GPU memory used/free/total (MiB): 32033 / 32935 / 64969
------------------
     ethr =  1.88E-10,  avg # of iterations =  2.0

     negative rho (up, down):  4.081E-02 0.000E+00

     total cpu time spent up to now is      148.5 secs

     total energy              =   -9095.88620068 Ry
     estimated scf accuracy    <       0.00000130 Ry
[tb_dev] Currently allocated     2.41E+01 Mbytes, locked:    0 /   6
[tb_pin] Currently allocated     0.00E+00 Mbytes, locked:    0 /   0

     iteration # 27     ecut=    90.00 Ry     beta= 0.20
     Davidson diagonalization with overlap

---- Real-time Memory Report at c_bands before calling an iterative solver
         10693 MiB given to the printing process from OS
         -1892 MiB allocation reported by mallinfo(arena+hblkhd)
        463849 MiB available memory on the node where the printing process lives
     GPU memory used/free/total (MiB): 32033 / 32935 / 64969
------------------
     ethr =  9.34E-11,  avg # of iterations =  2.0

     negative rho (up, down):  4.082E-02 0.000E+00

     total cpu time spent up to now is      152.3 secs

     total energy              =   -9095.88620087 Ry
     estimated scf accuracy    <       0.00000055 Ry
[tb_dev] Currently allocated     2.41E+01 Mbytes, locked:    0 /   6
[tb_pin] Currently allocated     0.00E+00 Mbytes, locked:    0 /   0

     iteration # 28     ecut=    90.00 Ry     beta= 0.20
     Davidson diagonalization with overlap

---- Real-time Memory Report at c_bands before calling an iterative solver
         10693 MiB given to the printing process from OS
         -1892 MiB allocation reported by mallinfo(arena+hblkhd)
        463896 MiB available memory on the node where the printing process lives
     GPU memory used/free/total (MiB): 32033 / 32935 / 64969
------------------
     ethr =  3.94E-11,  avg # of iterations =  4.0

     negative rho (up, down):  4.083E-02 0.000E+00

     total cpu time spent up to now is      156.2 secs

     total energy              =   -9095.88620096 Ry
     estimated scf accuracy    <       0.00000020 Ry
[tb_dev] Currently allocated     2.41E+01 Mbytes, locked:    0 /   6
[tb_pin] Currently allocated     0.00E+00 Mbytes, locked:    0 /   0

     iteration # 29     ecut=    90.00 Ry     beta= 0.20
     Davidson diagonalization with overlap

---- Real-time Memory Report at c_bands before calling an iterative solver
         10693 MiB given to the printing process from OS
         -1892 MiB allocation reported by mallinfo(arena+hblkhd)
        463849 MiB available memory on the node where the printing process lives
     GPU memory used/free/total (MiB): 32033 / 32935 / 64969
------------------
     ethr =  1.42E-11,  avg # of iterations =  4.0

     negative rho (up, down):  4.086E-02 0.000E+00

[...]
     atom  143 type  1   force =    -0.00000258   -0.00000129    0.00003140
     atom  144 type  1   force =    -0.00000477   -0.00000171    0.00000425
     atom  145 type  1   force =    -0.00000089   -0.00000055    0.00000559
     atom  146 type  1   force =    -0.00000891    0.00000368    0.00000825
     atom  147 type  1   force =     0.00001185    0.00001300    0.00002357
     atom  148 type  1   force =     0.00000126   -0.00001961    0.00003082
     atom  149 type  1   force =     0.00000282   -0.00000249    0.00003872
     atom  150 type  4   force =    -0.00000070    0.00000340    0.00003618
     atom  151 type  2   force =     0.00000188    0.00000139   -0.00000709
     atom  152 type  2   force =     0.00000696    0.00000130   -0.00000643
     atom  153 type  2   force =    -0.00000411    0.00000229   -0.00000333
     atom  154 type  2   force =     0.00000030    0.00000760    0.00000368
     atom  155 type  2   force =     0.00000834   -0.00000376    0.00000357
     atom  156 type  2   force =     0.00000911   -0.00001172   -0.00000211
     atom  157 type  2   force =     0.00001814   -0.00001018    0.00001523
     atom  158 type  2   force =    -0.00000266    0.00002405    0.00001201
     atom  159 type  2   force =    -0.00001772   -0.00000884    0.00001271
     atom  160 type  2   force =     0.00001672   -0.00001067    0.00002673
     atom  161 type  2   force =    -0.00000493    0.00000918    0.00002000
     atom  162 type  2   force =    -0.00001529   -0.00001391    0.00001085
     atom  163 type  2   force =    -0.00000247    0.00000168    0.00001541
     atom  164 type  2   force =     0.00000348   -0.00000703    0.00000234
     atom  165 type  3   force =     0.00001157    0.00000252   -0.00002635
     atom  166 type  3   force =     0.00002380    0.00000086   -0.00004877
     atom  167 type  1   force =    -0.00000668    0.00000770   -0.00000291
     atom  168 type  1   force =    -0.00000403    0.00000298    0.00001805
     atom  169 type  1   force =    -0.00003496    0.00000586   -0.00000548
     atom  170 type  1   force =     0.00002252   -0.00003376    0.00000222
     atom  171 type  1   force =     0.00002421    0.00002576    0.00000334
     atom  172 type  1   force =    -0.00000122    0.00000712    0.00000327
     atom  173 type  1   force =     0.00000428    0.00000251    0.00000042
     atom  174 type  1   force =     0.00000432   -0.00000666    0.00006829
     atom  175 type  4   force =    -0.00000977    0.00000114    0.00003370
     atom  176 type  2   force =     0.00000388    0.00000930    0.00000310
     atom  177 type  2   force =    -0.00000346    0.00000728    0.00000029
     atom  178 type  2   force =    -0.00001175   -0.00000478   -0.00000166
     atom  179 type  2   force =     0.00000460   -0.00000281    0.00001099
     atom  180 type  2   force =     0.00000386    0.00000205    0.00001325
     atom  181 type  2   force =    -0.00000368    0.00000638    0.00001681
     atom  182 type  2   force =     0.00000054   -0.00000322    0.00001542
     atom  183 type  2   force =    -0.00000108    0.00000858    0.00001656
     atom  184 type  2   force =    -0.00000417   -0.00000082    0.00001770
     atom  185 type  2   force =     0.00000184   -0.00000035    0.00001110
     atom  186 type  2   force =    -0.00000116   -0.00000273    0.00000005
     atom  187 type  2   force =    -0.00000203   -0.00000639    0.00001526
     atom  188 type  2   force =     0.00000400   -0.00000003    0.00000289
     atom  189 type  2   force =    -0.00000626   -0.00000144    0.00000666
     atom  190 type  3   force =    -0.00002202    0.00000672    0.00007665
     atom  191 type  3   force =     0.00000011    0.00000162   -0.00000240
     atom  192 type  1   force =    -0.00000027   -0.00000354    0.00003793
     atom  193 type  1   force =    -0.00001106    0.00000045    0.00000687
     atom  194 type  1   force =    -0.00001980   -0.00000017   -0.00000932
     atom  195 type  1   force =     0.00001993   -0.00001320    0.00000159
     atom  196 type  1   force =     0.00002098    0.00000963    0.00000724
     atom  197 type  1   force =    -0.00001032   -0.00000828    0.00002588
     atom  198 type  1   force =    -0.00000877    0.00000530    0.00002621
     atom  199 type  1   force =     0.00001024   -0.00000039    0.00005642
     atom  200 type  4   force =    -0.00000630    0.00001005    0.00004599
     atom  201 type  2   force =    -0.00000196   -0.00000629   -0.00000322
     atom  202 type  2   force =     0.00000258    0.00000196   -0.00000234
     atom  203 type  2   force =    -0.00000081   -0.00000279   -0.00000569
     atom  204 type  2   force =     0.00000417   -0.00000678   -0.00000406
     atom  205 type  2   force =     0.00000149   -0.00000065   -0.00001171
     atom  206 type  2   force =     0.00000638   -0.00000251    0.00000628
     atom  207 type  2   force =     0.00000949   -0.00001457    0.00001898
     atom  208 type  2   force =     0.00000319    0.00000926    0.00001616
     atom  209 type  2   force =    -0.00001403   -0.00000187    0.00001936
     atom  210 type  2   force =     0.00002246   -0.00001016    0.00002500
     atom  211 type  2   force =    -0.00000445    0.00001072    0.00001675
     atom  212 type  2   force =    -0.00000746   -0.00001430    0.00001852
     atom  213 type  2   force =     0.00000178   -0.00000104    0.00001697
     atom  214 type  2   force =    -0.00000020    0.00000323    0.00001086
     atom  215 type  3   force =     0.00000423    0.00001159   -0.00003136
     atom  216 type  3   force =    -0.00000547    0.00000262   -0.00005861
     atom  217 type  1   force =    -0.00004529   -0.00001053   -0.00002969
     atom  218 type  1   force =     0.00000040   -0.00000519    0.00008338
     atom  219 type  1   force =    -0.00002737   -0.00000126    0.00000120
     atom  220 type  1   force =     0.00000632   -0.00002484   -0.00000035
     atom  221 type  1   force =     0.00001610    0.00002216    0.00000231
     atom  222 type  1   force =     0.00002091    0.00004576   -0.00002342
     atom  223 type  1   force =     0.00001247   -0.00004685   -0.00001962
     atom  224 type  1   force =     0.00000391    0.00000103    0.00005497
     atom  225 type  4   force =     0.00000872    0.00000023    0.00003448
     atom  226 type  2   force =    -0.00000143   -0.00000784    0.00000105
     atom  227 type  2   force =    -0.00000510   -0.00000219    0.00000313
     atom  228 type  2   force =     0.00000481    0.00000073    0.00000681
     atom  229 type  2   force =    -0.00000360   -0.00002072    0.00001498
     atom  230 type  2   force =    -0.00001094    0.00000487    0.00001914
     atom  231 type  2   force =     0.00000775   -0.00000938    0.00000994
     atom  232 type  2   force =     0.00000232   -0.00000681    0.00001213
     atom  233 type  2   force =     0.00000913    0.00000067    0.00001029
     atom  234 type  2   force =    -0.00000138    0.00000288    0.00002046
     atom  235 type  2   force =     0.00000058    0.00000726    0.00000874
     atom  236 type  2   force =    -0.00000536   -0.00000959    0.00000304
     atom  237 type  2   force =    -0.00000333   -0.00000206    0.00001985
     atom  238 type  2   force =    -0.00000151    0.00000154    0.00001797
     atom  239 type  2   force =    -0.00001147   -0.00000390    0.00001131
     atom  240 type  3   force =    -0.00002807    0.00002273    0.00009381
     atom  241 type  3   force =    -0.00001459   -0.00000043    0.00001782
     atom  242 type  1   force =     0.00000799    0.00000483    0.00003207
     atom  243 type  1   force =     0.00000207    0.00000773    0.00001106
     atom  244 type  1   force =    -0.00000638   -0.00001288    0.00001809
     atom  245 type  1   force =    -0.00000209   -0.00001855   -0.00000078
     atom  246 type  1   force =     0.00000062    0.00001021    0.00001148
     atom  247 type  1   force =    -0.00001672    0.00000173    0.00003691
     atom  248 type  1   force =    -0.00000852    0.00000035    0.00003509
     atom  249 type  1   force =    -0.00000850    0.00000375    0.00003594
     atom  250 type  4   force =    -0.00000467   -0.00001048    0.00003873
     atom  251 type  2   force =     0.00000143   -0.00000321   -0.00000093
     atom  252 type  2   force =    -0.00000118   -0.00000028   -0.00000419
     atom  253 type  2   force =    -0.00000557    0.00000519   -0.00000345
     atom  254 type  2   force =    -0.00000197   -0.00000961   -0.00000408
     atom  255 type  2   force =    -0.00000739    0.00000625   -0.00000320
     atom  256 type  2   force =     0.00000183    0.00000675    0.00000440
     atom  257 type  2   force =     0.00001095   -0.00001091    0.00000787
     atom  258 type  2   force =     0.00000475    0.00001357    0.00001287
     atom  259 type  2   force =    -0.00001551   -0.00000392    0.00001587
     atom  260 type  2   force =     0.00000946    0.00000627    0.00001659
     atom  261 type  2   force =     0.00000327    0.00001824    0.00001840
     atom  262 type  2   force =    -0.00001236   -0.00000170    0.00002264
     atom  263 type  2   force =     0.00000298    0.00000078    0.00001447
     atom  264 type  2   force =    -0.00000406    0.00000739    0.00000847
     atom  265 type  3   force =    -0.00000140    0.00002157    0.00003322
     atom  266 type  3   force =    -0.00000952   -0.00000634   -0.00004959
     atom  267 type  1   force =     0.00001310   -0.00000228    0.00001084
     atom  268 type  1   force =    -0.00000513    0.00001129    0.00000413
     atom  269 type  1   force =    -0.00001096   -0.00000059    0.00001074
     atom  270 type  1   force =    -0.00000239   -0.00001001    0.00000912
     atom  271 type  1   force =     0.00000682    0.00000558    0.00000845
     atom  272 type  1   force =    -0.00000495   -0.00000609    0.00001243
     atom  273 type  1   force =    -0.00000698    0.00000860    0.00000417
     atom  274 type  1   force =    -0.00000073    0.00001033    0.00004039
     atom  275 type  4   force =     0.00000293   -0.00000422    0.00002413
     atom  276 type  2   force =    -0.00000091   -0.00000559    0.00000323
     atom  277 type  2   force =    -0.00000150   -0.00000180    0.00000663
     atom  278 type  2   force =     0.00000553    0.00000450    0.00000513
     atom  279 type  2   force =    -0.00001203    0.00000333    0.00000335
     atom  280 type  2   force =    -0.00001414    0.00000728    0.00001300
     atom  281 type  2   force =    -0.00000593    0.00000406    0.00001251
     atom  282 type  2   force =    -0.00001005   -0.00000173    0.00001507
     atom  283 type  2   force =     0.00000750   -0.00000393    0.00001602
     atom  284 type  2   force =     0.00000130    0.00000107    0.00001327
     atom  285 type  2   force =     0.00000084    0.00000900    0.00000223
     atom  286 type  2   force =     0.00000330   -0.00000520    0.00002020
     atom  287 type  2   force =    -0.00001057   -0.00000598    0.00001309
     atom  288 type  2   force =     0.00000217   -0.00000184    0.00000703
     atom  289 type  2   force =    -0.00000527   -0.00000178    0.00000149
     atom  290 type  3   force =     0.00003881    0.00000310    0.00006515
     atom  291 type  3   force =     0.00004172    0.00001429    0.00001298
     atom  292 type  1   force =     0.00002688    0.00000456    0.00003180
     atom  293 type  1   force =     0.00000156   -0.00000275   -0.00000397
     atom  294 type  1   force =    -0.00001230    0.00000130    0.00000569
     atom  295 type  1   force =     0.00001805    0.00000147    0.00000367
     atom  296 type  1   force =    -0.00000528    0.00000503   -0.00000091
     atom  297 type  1   force =    -0.00000578   -0.00001799    0.00003645
     atom  298 type  1   force =    -0.00000703    0.00001414    0.00003882
     atom  299 type  1   force =     0.00000144   -0.00000659    0.00002347
     atom  300 type  4   force =     0.00001476   -0.00000081    0.00003846

     Total force =     0.987201     Total SCF correction =     0.000476


     Computing stress (Cartesian axis) and pressure


     negative rho (up, down):  4.086E-02 0.000E+00
          total   stress  (Ry/bohr**3)                   (kbar)     P=        0.83
   0.00002929  -0.00000945  -0.00000039            4.31       -1.39       -0.06
  -0.00000945   0.00001476  -0.00000121           -1.39        2.17       -0.18
  -0.00000039  -0.00000121  -0.00002703           -0.06       -0.18       -3.98

     kinetic stress (kbar)   5329.33     -2.00     -0.23
                               -2.00   5328.89     -1.11
                               -0.23     -1.11   5322.02

     local   stress (kbar)-643349.50   -111.46      7.54
                             -111.46-643099.53    -98.41
                                7.54    -98.41 636892.83

     nonloc. stress (kbar)    958.03      0.22     -0.03
                                0.22    958.03     -0.56
                               -0.03     -0.56    954.05

     hartree stress (kbar) 322295.71     46.83     -3.42
                               46.83 322201.33     40.32
                               -3.42     40.32-316410.48

     exc-cor stress (kbar)  -1263.11      0.09      0.03
                                0.09  -1263.45      0.08
                                0.03      0.08  -1264.96

     corecor stress (kbar)   -292.83      0.00      0.01
                                0.00   -292.83      0.01
                                0.01      0.01   -292.72

     ewald   stress (kbar) 316326.68     64.92     -3.96
                               64.92 316169.72     59.49
                               -3.96     59.49-325204.70

     hubbard stress (kbar)      0.00      0.00      0.00
                                0.00      0.00      0.00
                                0.00      0.00      0.00

     DFT-D   stress (kbar)      0.00      0.00      0.00
                                0.00      0.00      0.00
                                0.00      0.00      0.00

     XDM     stress (kbar)      0.00      0.00      0.00
                                0.00      0.00      0.00
                                0.00      0.00      0.00

     dft-nl  stress (kbar)      0.00      0.00      0.00
                                0.00      0.00      0.00
                                0.00      0.00      0.00

     TS-vdW  stress (kbar)      0.00      0.00      0.00
                                0.00      0.00      0.00
                                0.00      0.00      0.00

     MDB     stress (kbar)      0.00      0.00      0.00
                                0.00      0.00      0.00
                                0.00      0.00      0.00

     3D-RISM stress (kbar)      0.00      0.00      0.00
                                0.00      0.00      0.00
                                0.00      0.00      0.00


     Writing all to output data dir ./tmp/pwscf.save/
 
     init_run     :     31.70s CPU     36.50s WALL (       1 calls)
     electrons    :    116.14s CPU    123.01s WALL (       1 calls)
     forces       :      3.13s CPU      3.34s WALL (       1 calls)
     stress       :     81.06s CPU     83.51s WALL (       1 calls)

     Called by init_run:
     wfcinit      :      3.52s CPU      5.41s WALL (       1 calls)
                                        5.41s GPU  (       1 calls)
     wfcinit:atom :      0.01s CPU      0.01s WALL (       1 calls)
                                        0.01s GPU  (       1 calls)
     wfcinit:wfcr :      1.26s CPU      2.43s WALL (       1 calls)
                                        2.43s GPU  (       1 calls)
     potinit      :     18.62s CPU     18.90s WALL (       1 calls)
     hinit0       :      7.24s CPU      7.49s WALL (       1 calls)

     Called by electrons:
     c_bands      :     74.46s CPU     76.21s WALL (      29 calls)
     sum_band     :     15.86s CPU     16.32s WALL (      29 calls)
     v_of_rho     :      3.22s CPU      3.35s WALL (      30 calls)
     v_h          :      1.75s CPU      1.83s WALL (      30 calls)
     v_xc         :      1.60s CPU      1.65s WALL (      32 calls)
     newd         :      2.47s CPU      4.86s WALL (      30 calls)
                                        4.86s GPU  (      30 calls)
     PAW_pot      :      3.26s CPU      3.28s WALL (      30 calls)
     mix_rho      :      8.01s CPU      8.33s WALL (      29 calls)

     Called by c_bands:
     init_us_2    :      0.47s CPU      0.63s WALL (      59 calls)
     init_us_2:gp :      0.47s CPU      0.62s WALL (      59 calls)
     regterg      :     65.30s CPU     66.86s WALL (      30 calls)

     Called by sum_band:
     sum_band:wei :      0.01s CPU      0.01s WALL (      29 calls)
                                        0.01s GPU  (      29 calls)
     sum_band:loo :     12.46s CPU     12.83s WALL (      29 calls)
                                       12.83s GPU  (      29 calls)
     sum_band:buf :      1.89s CPU      1.90s WALL (      29 calls)
                                        1.89s GPU  (      29 calls)
     sum_band:ini :      0.23s CPU      0.45s WALL (      29 calls)
                                        0.45s GPU  (      29 calls)
     sum_band:cal :      2.08s CPU      2.15s WALL (      29 calls)
                                        2.15s GPU  (      29 calls)
     sum_band:bec :      0.20s CPU      0.21s WALL (      29 calls)
                                        0.21s GPU  (      29 calls)
     addusdens    :      2.07s CPU      2.14s WALL (      29 calls)
                                        2.14s GPU  (      29 calls)
     addusd:skk   :      0.44s CPU      0.44s WALL (     116 calls)
                                        0.44s GPU  (     116 calls)

     Called by *egterg:
     rdiaghg      :      6.24s CPU      6.36s WALL (     240 calls)
                                        6.36s GPU  (     240 calls)
     regterg:over :      4.08s CPU      4.16s WALL (     210 calls)
     regterg:upda :      2.23s CPU      2.29s WALL (     210 calls)
     regterg:last :      4.56s CPU      4.57s WALL (      69 calls)
     h_psi        :     41.64s CPU     43.91s WALL (     241 calls)
                                       43.91s GPU  (     241 calls)
     s_psi        :      1.10s CPU      5.17s WALL (     241 calls)
                                        5.02s GPU  (     241 calls)
     g_psi        :      0.00s CPU      0.22s WALL (     210 calls)
                                        0.22s GPU  (     210 calls)

     Called by h_psi:
     h_psi:calbec :      6.07s CPU      6.34s WALL (     241 calls)
                                        6.34s GPU  (     241 calls)
     vloc_psi     :     30.87s CPU     32.19s WALL (     241 calls)
                                       32.18s GPU  (     241 calls)
     add_vuspsi   :      0.49s CPU      5.17s WALL (     241 calls)
                                        5.16s GPU  (     241 calls)

     General routines
     calbec       :      8.56s CPU      9.04s WALL (     275 calls)
     fft          :      5.81s CPU      7.61s WALL (     348 calls)
                                        0.80s GPU  (     318 calls)
     ffts         :      2.90s CPU      3.42s WALL (      59 calls)
                                        0.04s GPU  (      29 calls)
     fftw         :     18.32s CPU     31.02s WALL (   16624 calls)
                                       30.83s GPU  (   16624 calls)
     interpolate  :      9.26s CPU     11.42s WALL (      30 calls)
 
     Parallel routines

     PAW routines
     PAW_pot      :      3.26s CPU      3.28s WALL (      30 calls)
 
     PWSCF        :   3m54.38s CPU   4m13.87s WALL

 
   This run was terminated on:  14:16:44  30Dec2023            

=------------------------------------------------------------------------------=
   JOB DONE.
=------------------------------------------------------------------------------=
