
     Program PWSCF v.7.2 starts on 30Dec2023 at 14:29:46 

     This program is part of the open-source Quantum ESPRESSO suite
     for quantum simulation of materials; please cite
         "P. Giannozzi et al., J. Phys.:Condens. Matter 21 395502 (2009);
         "P. Giannozzi et al., J. Phys.:Condens. Matter 29 465901 (2017);
         "P. Giannozzi et al., J. Chem. Phys. 152 154105 (2020);
          URL http://www.quantum-espresso.org", 
     in publications or presentations arising from this work. More details at
     http://www.quantum-espresso.org/quote

     Parallel version (MPI & OpenMP), running on       4 processor cores
     Number of MPI processes:                 4
     Threads/MPI process:                     1

     MPI processes distributed on     1 nodes
     504117 MiB available memory on the printing compute node when the environment starts
 
     Reading input from input_0016.inp

     Current dimensions of program PWSCF are:
     Max number of different atomic species (ntypx) = 10
     Max number of k-points (npk) =  40000
     Max angular momentum in pseudopotentials (lmaxx) =  4
     file O.pbe-n-kjpaw_psl.0.1.UPF: wavefunction(s)  2P renormalized

     gamma-point specific algorithms are used
 
     R & G space division:  proc/nbgrp/npool/nimage =       4
     Subspace diagonalization in iterative solution of the eigenvalue problem:
     a serial algorithm will be used

 
     Parallelization info
     --------------------
     sticks:   dense  smooth     PW     G-vecs:    dense   smooth      PW
     Min        6485    4324   1079              2728975  1485363  185656
     Max        6486    4326   1080              2728990  1485382  185664
     Sum       25943   17301   4319             10915929  5941483  742635
 
     Using Slab Decomposition
 


     bravais-lattice index     =            0
     lattice parameter (alat)  =      32.3352  a.u.
     unit-cell volume          =   51510.8153 (a.u.)^3
     number of atoms/cell      =          300
     number of atomic types    =            4
     number of electrons       =      1392.00
     number of Kohn-Sham states=          835
     kinetic-energy cutoff     =      90.0000  Ry
     charge density cutoff     =     540.0000  Ry
     scf convergence threshold =      1.0E-07
     mixing beta               =       0.2000
     number of iterations used =            8  plain     mixing
     Exchange-correlation= SLA  PW   PBX  PBC
                           (   1   4   3   4   0   0   0)

     GPU acceleration is ACTIVE.
     GPU-aware MPI enabled


     GPU used by master process:

        Device Number: 0
        Device name: NVIDIA PG506-243
        Compute capability : 80
        Ratio of single to double precision performance  : 2
        Memory Clock Rate (KHz): 1593000
        Memory Bus Width (bits): 4096
        Peak Memory Bandwidth (GB/s): ******

     celldm(1)=  32.335181  celldm(2)=   0.000000  celldm(3)=   0.000000
     celldm(4)=   0.000000  celldm(5)=   0.000000  celldm(6)=   0.000000

     crystal axes: (cart. coord. in units of alat)
               a(1) = (   1.000000   0.000000   0.000000 )  
               a(2) = (  -0.333333   0.577350   0.000000 )  
               a(3) = (   0.000000  -0.000000   2.638962 )  

     reciprocal axes: (cart. coord. in units 2 pi/alat)
               b(1) = (  1.000000  0.577350  0.000000 )  
               b(2) = ( -0.000000  1.732051  0.000000 )  
               b(3) = (  0.000000 -0.000000  0.378937 )  


     PseudoPot. # 1 for N  read from file:
     /leonardo_scratch/large/userexternal/uraucci0/Li_Cr/PPS/N.pbe-n-radius_5.UPF
     MD5 check sum: 16739722b17309cd8fe442a2ace49922
     Pseudo is Ultrasoft + core correction, Zval =  5.0
     Generated using "atomic" code by A. Dal Corso  v.5.1
     Using radial grid of 1085 points,  4 beta functions with: 
                l(1) =   0
                l(2) =   0
                l(3) =   1
                l(4) =   1
     Q(r) pseudized with 0 coefficients 


     PseudoPot. # 2 for Li read from file:
     /leonardo_scratch/large/userexternal/uraucci0/Li_Cr/PPS/li_pbe_v1.4.uspp.F.UPF
     MD5 check sum: e912e257baa3777c20ea3d68f190483c
     Pseudo is Ultrasoft, Zval =  3.0
     Generated by new atomic code, or converted to UPF format
     Using radial grid of  751 points,  5 beta functions with: 
                l(1) =   0
                l(2) =   0
                l(3) =   0
                l(4) =   1
                l(5) =   1
     Q(r) pseudized with 10 coefficients,  rinner =    1.150   1.150   1.150


     PseudoPot. # 3 for Cr read from file:
     /leonardo_scratch/large/userexternal/uraucci0/Li_Cr/PPS/cr_pbe_v1.5.uspp.F.UPF
     MD5 check sum: 0d52af634a40206e4dee301ad30da4bf
     Pseudo is Ultrasoft + core correction, Zval = 14.0
     Generated by new atomic code, or converted to UPF format
     Using radial grid of  857 points,  6 beta functions with: 
                l(1) =   0
                l(2) =   0
                l(3) =   1
                l(4) =   1
                l(5) =   2
                l(6) =   2
     Q(r) pseudized with  8 coefficients,  rinner =    0.950   0.950   0.950
                                                       0.950   0.950

     PseudoPot. # 4 for O  read from file:
     /leonardo_scratch/large/userexternal/uraucci0/Li_Cr/PPS/O.pbe-n-kjpaw_psl.0.1.UPF
     MD5 check sum: 0234752ac141de4415c5fc33072bef88
     Pseudo is Projector augmented-wave + core cor, Zval =  6.0
     Generated using "atomic" code by A. Dal Corso  v.5.0.99 svn rev. 10869
     Shape of augmentation charge: BESSEL
     Using radial grid of 1095 points,  4 beta functions with: 
                l(1) =   0
                l(2) =   0
                l(3) =   1
                l(4) =   1
     Q(r) pseudized with 0 coefficients 


     atomic species   valence    mass     pseudopotential
        N              5.00    14.00674     N ( 1.00)
        Li             3.00     6.94100     Li( 1.00)
        Cr            14.00    51.99610     Cr( 1.00)
        O              6.00    15.99940     O ( 1.00)

     No symmetry found


                                    s                        frac. trans.

      isym =  1     identity                                     

 cryst.   s( 1) = (     1          0          0      )
                  (     0          1          0      )
                  (     0          0          1      )

 cart.    s( 1) = (  1.0000000  0.0000000  0.0000000 )
                  (  0.0000000  1.0000000  0.0000000 )
                  (  0.0000000  0.0000000  1.0000000 )


   Cartesian axes

     site n.     atom                  positions (alat units)
         1           Li  tau(   1) = (   0.2593273   0.0873080   0.8766270  )
         2           Li  tau(   2) = (   0.1280588   0.1809300   0.8766270  )
         3           Li  tau(   3) = (   0.1126144   0.0204373   0.8766270  )
         4           Li  tau(   4) = (  -0.1007326   0.2038397   1.2806234  )
         5           Li  tau(   5) = (   0.0286128   0.1080191   1.2749253  )
         6           Li  tau(   6) = (   0.0511545   0.2851194   1.2778474  )
         7           Li  tau(   7) = (   0.0669942   0.0904568   1.0336250  )
         8           Li  tau(   8) = (   0.2214985   0.0127904   1.0336250  )
         9           Li  tau(   9) = (   0.2115073   0.1854282   1.0336250  )
        10           Li  tau(  10) = (   0.1042596   0.2035575   1.1171325  )
        11           Li  tau(  11) = (  -0.0576310   0.2653673   1.1282715  )
        12           Li  tau(  12) = (  -0.0437477   0.0988397   1.1079805  )
        13           Li  tau(  13) = (   0.0000000   0.0000000   0.9626942  )
        14           Li  tau(  14) = (   0.9933119  -0.0067580   1.1957542  )
        15           Cr  tau(  15) = (   0.1610083   0.0974067   1.1937497  )
        16           Cr  tau(  16) = (  -0.0000000   0.1924500   0.9478909  )
        17           N   tau(  17) = (   0.2591946   0.0852613   1.2336421  )
        18           N   tau(  18) = (   0.1682043   0.0877416   1.0966779  )
        19           N   tau(  19) = (  -0.0969339   0.1982778   0.9168466  )
        20           N   tau(  20) = (   0.0434200   0.1055885   0.9168466  )
        21           N   tau(  21) = (   0.0535141   0.2734837   0.9168466  )
        22           N   tau(  22) = (   0.0999448   0.0212178   1.2334784  )
        23           N   tau(  23) = (   0.1324934   0.1912052   1.2268336  )
        24           N   tau(  24) = (  -0.0000000   0.1924500   1.0497374  )
        25           O   tau(  25) = (   0.6610995   0.5785370   1.0686200  )
        26           Li  tau(  26) = (   0.2711623   0.0908729   1.3831888  )
        27           Li  tau(  27) = (   0.1476374   0.1739655   1.3706296  )
        28           Li  tau(  28) = (   0.1184557   0.0313457   1.3501633  )
        29           Li  tau(  29) = (  -0.1097420   0.2153528   1.7915976  )
        30           Li  tau(  30) = (   0.0413193   0.1071641   1.8136360  )
        31           Li  tau(  31) = (   0.0247323   0.2309556   1.7233200  )
        32           Li  tau(  32) = (   0.0603271   0.0794826   1.5384336  )
        33           Li  tau(  33) = (   0.2168097   0.0134719   1.5150276  )
        34           Li  tau(  34) = (   0.2131179   0.1960074   1.5177744  )
        35           Li  tau(  35) = (   0.1071221   0.2096857   1.6059105  )
        36           Li  tau(  36) = (  -0.0524911   0.2919571   1.6071377  )
        37           Li  tau(  37) = (  -0.0323050   0.1165107   1.6301287  )
        38           Li  tau(  38) = (   0.0140471   0.0102214   1.4380715  )
        39           Li  tau(  39) = (   0.6398266   0.5961297   1.7177914  )
        40           Cr  tau(  40) = (   0.1653237   0.0971309   1.7070791  )
        41           Cr  tau(  41) = (   0.0069093   0.1954411   1.4478722  )
        42           N   tau(  42) = (   0.2579487   0.0962659   1.7473805  )
        43           N   tau(  43) = (   0.1821485   0.0910646   1.6064481  )
        44           N   tau(  44) = (  -0.0973062   0.1953926   1.4059402  )
        45           N   tau(  45) = (   0.0513089   0.1119727   1.3996285  )
        46           N   tau(  46) = (   0.0438081   0.2796569   1.4143149  )
        47           N   tau(  47) = (   0.1019126   0.0212066   1.7427987  )
        48           N   tau(  48) = (   0.1218132   0.1915173   1.7222096  )
        49           N   tau(  49) = (   0.0003451   0.1823875   1.5507882  )
        50           O   tau(  50) = (   0.0094666  -0.0044259   1.5684610  )
        51           Li  tau(  51) = (   0.0926606   0.3759836   0.8766270  )
        52           Li  tau(  52) = (  -0.0386079   0.4696050   0.8766270  )
        53           Li  tau(  53) = (  -0.0540524   0.3091127   0.8766270  )
        54           Li  tau(  54) = (  -0.2647133   0.4819753   1.2780461  )
        55           Li  tau(  55) = (  -0.1310885   0.3772301   1.2980858  )
        56           Li  tau(  56) = (  -0.1130855   0.5790232   1.2790280  )
        57           Li  tau(  57) = (  -0.0996725   0.3791318   1.0336250  )
        58           Li  tau(  58) = (   0.0548319   0.3014656   1.0336250  )
        59           Li  tau(  59) = (   0.0448406   0.4741032   1.0336250  )
        60           Li  tau(  60) = (  -0.0742725   0.4909929   1.1240169  )
        61           Li  tau(  61) = (  -0.2202210   0.5768655   1.1131818  )
        62           Li  tau(  62) = (  -0.2041734   0.3876813   1.1066422  )
        63           Li  tau(  63) = (  -0.1666667   0.2886750   0.9626942  )
        64           Li  tau(  64) = (  -0.1599938   0.3070573   1.1780113  )
        65           Cr  tau(  65) = (  -0.0013378   0.3828996   1.1984367  )
        66           Cr  tau(  66) = (  -0.1666667   0.4811250   0.9478909  )
        67           N   tau(  67) = (   0.0936951   0.3834530   1.2347408  )
        68           N   tau(  68) = (   0.0027561   0.3841508   1.1001551  )
        69           N   tau(  69) = (  -0.2636006   0.4869528   0.9168466  )
        70           N   tau(  70) = (  -0.1232467   0.3942641   0.9168466  )
        71           N   tau(  71) = (  -0.1131527   0.5621587   0.9168466  )
        72           N   tau(  72) = (  -0.0501721   0.3019425   1.2350271  )
        73           N   tau(  73) = (  -0.0341682   0.4670744   1.2385278  )
        74           N   tau(  74) = (  -0.1666667   0.4811250   1.0497374  )
        75           O   tau(  75) = (   0.8277112   0.2902284   1.0760362  )
        76           Li  tau(  76) = (   0.0807917   0.3806560   1.3690751  )
        77           Li  tau(  77) = (  -0.0360880   0.4667705   1.3909031  )
        78           Li  tau(  78) = (  -0.0498518   0.2995499   1.3743991  )
        79           Li  tau(  79) = (  -0.2590514   0.4996324   1.7672390  )
        80           Li  tau(  80) = (  -0.1272570   0.3860864   1.7823463  )
        81           Li  tau(  81) = (  -0.1536528   0.5524334   1.7946015  )
        82           Li  tau(  82) = (  -0.1009798   0.3881026   1.5432199  )
        83           Li  tau(  83) = (   0.0526592   0.3206251   1.5302225  )
        84           Li  tau(  84) = (   0.0458438   0.4755748   1.5446401  )
        85           Li  tau(  85) = (  -0.0610243   0.4854035   1.6174995  )
        86           Li  tau(  86) = (  -0.2282129   0.5705649   1.6191242  )
        87           Li  tau(  87) = (  -0.2208825   0.4102316   1.6203222  )
        88           Li  tau(  88) = (   0.8436599   0.2769942   1.4600047  )
        89           Li  tau(  89) = (   0.8356943   0.2925181   1.6912822  )
        90           Cr  tau(  90) = (  -0.0093410   0.3844021   1.7222330  )
        91           Cr  tau(  91) = (  -0.1703158   0.4865718   1.4452949  )
        92           N   tau(  92) = (   0.0883313   0.3949871   1.7597585  )
        93           N   tau(  93) = (   0.0027226   0.3812065   1.6239047  )
        94           N   tau(  94) = (  -0.2656507   0.4934457   1.4088155  )
        95           N   tau(  95) = (  -0.1295912   0.3968584   1.4110480  )
        96           N   tau(  96) = (  -0.1109728   0.5585668   1.4090142  )
        97           N   tau(  97) = (  -0.0660176   0.3028846   1.7414078  )
        98           N   tau(  98) = (  -0.0635858   0.4680907   1.7478773  )
        99           N   tau(  99) = (  -0.1749484   0.4942312   1.5445875  )
       100           O   tau( 100) = (  -0.1674463   0.2947553   1.5681804  )
       101           Li  tau( 101) = (   0.5926583   0.0873080   0.8766270  )
       102           Li  tau( 102) = (   0.4613921   0.1809300   0.8766270  )
       103           Li  tau( 103) = (   0.4459477   0.0204373   0.8766270  )
       104           Li  tau( 104) = (   0.2429028   0.2065450   1.2798461  )
       105           Li  tau( 105) = (   0.3607507   0.1107606   1.2301239  )
       106           Li  tau( 106) = (   0.3859169   0.2668032   1.2860001  )
       107           Li  tau( 107) = (   0.4003275   0.0904568   1.0336250  )
       108           Li  tau( 108) = (   0.5548318   0.0127904   1.0336250  )
       109           Li  tau( 109) = (   0.5448406   0.1854282   1.0336250  )
       110           Li  tau( 110) = (   0.4368080   0.2000597   1.1191546  )
       111           Li  tau( 111) = (   0.2782537   0.2859697   1.1102597  )
       112           Li  tau( 112) = (   0.2808321   0.0929049   1.1099792  )
       113           Li  tau( 113) = (   0.3333333   0.0000000   0.9626942  )
       114           Li  tau( 114) = (   0.0091487   0.5652368   1.1904945  )
       115           Cr  tau( 115) = (   0.5002887   0.0983383   1.2093420  )
       116           Cr  tau( 116) = (   0.3333333   0.1924500   0.9478909  )
       117           N   tau( 117) = (   0.5982278   0.0900851   1.2411168  )
       118           N   tau( 118) = (   0.5009105   0.0891547   1.1041058  )
       119           N   tau( 119) = (   0.2363994   0.1982778   0.9168466  )
       120           N   tau( 120) = (   0.3767532   0.1055885   0.9168466  )
       121           N   tau( 121) = (   0.3868473   0.2734837   0.9168466  )
       122           N   tau( 122) = (   0.4372913   0.0208703   1.2364239  )
       123           N   tau( 123) = (   0.4585793   0.1902117   1.2379901  )
       124           N   tau( 124) = (   0.3333333   0.1924500   1.0497374  )
       125           O   tau( 125) = (  -0.0079745   0.5795387   1.0684154  )
       126           Li  tau( 126) = (   0.3205895   0.5712516   1.4560891  )
       127           Li  tau( 127) = (   0.4506213   0.1831683   1.3675848  )
       128           Li  tau( 128) = (   0.5708525   0.0919272   1.3681751  )
       129           Li  tau( 129) = (   0.2302957   0.2132243   1.7584085  )
       130           Li  tau( 130) = (   0.3710429   0.1096736   1.7727676  )
       131           Li  tau( 131) = (   0.3838907   0.2644018   1.7782787  )
       132           Li  tau( 132) = (   0.3883037   0.0912060   1.5375745  )
       133           Li  tau( 133) = (   0.0649224   0.4897756   1.8090775  )
       134           Li  tau( 134) = (   0.5331686   0.1890744   1.5261783  )
       135           Li  tau( 135) = (   0.4352698   0.1920818   1.6129644  )
       136           Li  tau( 136) = (   0.2547864   0.2888024   1.6181599  )
       137           Li  tau( 137) = (   0.3002120   0.0982845   1.6153897  )
       138           Li  tau( 138) = (   0.4408785   0.0306338   1.3765264  )
       139           Li  tau( 139) = (   0.1075580   0.5577691   1.6337346  )
       140           Cr  tau( 140) = (   0.4945602   0.0964962   1.7052381  )
       141           Cr  tau( 141) = (   0.3385095   0.1979015   1.4542598  )
       142           N   tau( 142) = (   0.5928102   0.0991395   1.7314259  )
       143           N   tau( 143) = (   0.4864689   0.0966201   1.6048059  )
       144           N   tau( 144) = (   0.2422576   0.2083970   1.4146655  )
       145           N   tau( 145) = (   0.3756820   0.1029698   1.4226078  )
       146           N   tau( 146) = (   0.3938580   0.2786289   1.4182714  )
       147           N   tau( 147) = (   0.4512618   0.0076091   1.7510565  )
       148           N   tau( 148) = (   0.4503572   0.1815103   1.7422493  )
       149           N   tau( 149) = (   0.3311990   0.1956094   1.5540083  )
       150           O   tau( 150) = (   0.3375341  -0.0067619   1.5700740  )
       151           Li  tau( 151) = (   0.4259940   0.3759836   0.8766270  )
       152           Li  tau( 152) = (   0.2947255   0.4696050   0.8766270  )
       153           Li  tau( 153) = (   0.2792811   0.3091127   0.8766270  )
       154           Li  tau( 154) = (   0.0722428   0.4839717   1.2707643  )
       155           Li  tau( 155) = (   0.2021560   0.3936441   1.2627344  )
       156           Li  tau( 156) = (   0.2151219   0.5554986   1.2881098  )
       157           Li  tau( 157) = (   0.2336608   0.3791318   1.0336250  )
       158           Li  tau( 158) = (   0.3881652   0.3014656   1.0336250  )
       159           Li  tau( 159) = (   0.3781739   0.4741032   1.0336250  )
       160           Li  tau( 160) = (   0.2689702   0.4995505   1.1140409  )
       161           Li  tau( 161) = (   0.1192873   0.5672162   1.1206390  )
       162           Li  tau( 162) = (   0.1130200   0.4018522   1.1143273  )
       163           Li  tau( 163) = (   0.1666667   0.2886750   0.9626942  )
       164           Li  tau( 164) = (   0.1730906   0.2865740   1.2023348  )
       165           Cr  tau( 165) = (   0.3340919   0.3911089   1.2031004  )
       166           Cr  tau( 166) = (   0.1666667   0.4811250   0.9478909  )
       167           N   tau( 167) = (   0.4311246   0.3841935   1.2427765  )
       168           N   tau( 168) = (   0.3244765   0.4008646   1.1022766  )
       169           N   tau( 169) = (   0.0697328   0.4869528   0.9168466  )
       170           N   tau( 170) = (   0.2100866   0.3942641   0.9168466  )
       171           N   tau( 171) = (   0.2201806   0.5621587   0.9168466  )
       172           N   tau( 172) = (   0.2811080   0.3125011   1.2390245  )
       173           N   tau( 173) = (   0.2909385   0.4732669   1.2351557  )
       174           N   tau( 174) = (   0.1666667   0.4811250   1.0497374  )
       175           O   tau( 175) = (   0.1678384   0.2927221   1.0688245  )
       176           Li  tau( 176) = (   0.4235306   0.3855844   1.3561068  )
       177           Li  tau( 177) = (   0.2840190   0.4710163   1.3683212  )
       178           Li  tau( 178) = (   0.2808035   0.3143865   1.3844219  )
       179           Li  tau( 179) = (  -0.0012903   0.5874686   1.7078739  )
       180           Li  tau( 180) = (   0.1977834   0.4225412   1.7560942  )
       181           Li  tau( 181) = (   0.2204360   0.5689104   1.7743163  )
       182           Li  tau( 182) = (   0.2275922   0.3786099   1.5198374  )
       183           Li  tau( 183) = (   0.3939906   0.3212768   1.5646447  )
       184           Li  tau( 184) = (   0.3643495   0.4860254   1.5377089  )
       185           Li  tau( 185) = (   0.2725328   0.5052743   1.6186742  )
       186           Li  tau( 186) = (  -0.0010094   0.5771502   1.4626755  )
       187           Li  tau( 187) = (   0.1199109   0.4138410   1.6395437  )
       188           Li  tau( 188) = (   0.1497004   0.2836210   1.4531728  )
       189           Li  tau( 189) = (   0.1315192   0.2996381   1.7475909  )
       190           Cr  tau( 190) = (   0.3303785   0.3837622   1.7040109  )
       191           Cr  tau( 191) = (   0.1593141   0.4813138   1.4386734  )
       192           N   tau( 192) = (   0.4275327   0.3716308   1.7465507  )
       193           N   tau( 193) = (   0.3298139   0.3947527   1.5958059  )
       194           N   tau( 194) = (   0.0627116   0.4938735   1.4165590  )
       195           N   tau( 195) = (   0.2011555   0.3931058   1.4115097  )
       196           N   tau( 196) = (   0.2141027   0.5566593   1.4056772  )
       197           N   tau( 197) = (   0.2591835   0.3176271   1.7341201  )
       198           N   tau( 198) = (   0.2975739   0.4737204   1.7189018  )
       199           N   tau( 199) = (   0.1656743   0.4854608   1.5570882  )
       200           O   tau( 200) = (   0.1551934   0.2857757   1.5543005  )
       201           Li  tau( 201) = (   0.9259927   0.0873080   0.8766270  )
       202           Li  tau( 202) = (   0.7947266   0.1809300   0.8766270  )
       203           Li  tau( 203) = (   0.7792805   0.0204373   0.8766270  )
       204           Li  tau( 204) = (   0.5525689   0.2240577   1.2819617  )
       205           Li  tau( 205) = (   0.6925996   0.1244471   1.2736747  )
       206           Li  tau( 206) = (   0.7169698   0.2824399   1.2710097  )
       207           Li  tau( 207) = (   0.7336608   0.0904568   1.0336250  )
       208           Li  tau( 208) = (   0.8881634   0.0127904   1.0336250  )
       209           Li  tau( 209) = (   0.8781757   0.1854282   1.0336250  )
       210           Li  tau( 210) = (   0.7675278   0.2089820   1.1226845  )
       211           Li  tau( 211) = (   0.6146441   0.2821769   1.1190026  )
       212           Li  tau( 212) = (   0.6207337   0.0986714   1.1211708  )
       213           Li  tau( 213) = (   0.6666690   0.0000000   0.9626942  )
       214           Li  tau( 214) = (   0.6742313   0.0001192   1.2093011  )
       215           Cr  tau( 215) = (   0.8336138   0.0993025   1.2100666  )
       216           Cr  tau( 216) = (   0.6666690   0.1924500   0.9478909  )
       217           N   tau( 217) = (   0.9294233   0.0905556   1.2320934  )
       218           N   tau( 218) = (   0.8301774   0.0984762   1.1062623  )
       219           N   tau( 219) = (   0.5697327   0.1982778   0.9168466  )
       220           N   tau( 220) = (   0.7100854   0.1055885   0.9168466  )
       221           N   tau( 221) = (   0.7201783   0.2734837   0.9168466  )
       222           N   tau( 222) = (   0.7777727   0.0207462   1.2419174  )
       223           N   tau( 223) = (   0.7989753   0.1876280   1.2373239  )
       224           N   tau( 224) = (   0.6666690   0.1924500   1.0497374  )
       225           O   tau( 225) = (   0.3300647   0.5773261   1.0691693  )
       226           Li  tau( 226) = (   0.9208616   0.0976393   1.3734757  )
       227           Li  tau( 227) = (   0.7810103   0.2053762   1.3509231  )
       228           Li  tau( 228) = (   0.7844350   0.0460496   1.3735985  )
       229           Li  tau( 229) = (   0.5789543   0.2054819   1.7783781  )
       230           Li  tau( 230) = (   0.7011730   0.1163716   1.7677300  )
       231           Li  tau( 231) = (   0.7324218   0.2784348   1.7862735  )
       232           Li  tau( 232) = (   0.7202309   0.0816648   1.5522492  )
       233           Li  tau( 233) = (   0.9025459   0.0107926   1.5240452  )
       234           Li  tau( 234) = (   0.8603100   0.1748602   1.5314322  )
       235           Li  tau( 235) = (   0.7188400   0.1975117   1.6381937  )
       236           Li  tau( 236) = (   0.6124233   0.2842305   1.6179144  )
       237           Li  tau( 237) = (   0.5950076   0.0964658   1.6023806  )
       238           Li  tau( 238) = (   0.5320033   0.0158283   1.5267160  )
       239           Li  tau( 239) = (   0.4410141   0.5682723   1.6283112  )
       240           Cr  tau( 240) = (   0.8409190   0.1052771   1.7148226  )
       241           Cr  tau( 241) = (   0.6591826   0.1908049   1.4460546  )
       242           N   tau( 242) = (  -0.0636460   0.1171039   1.7606994  )
       243           N   tau( 243) = (   0.8638341   0.0796065   1.6149339  )
       244           N   tau( 244) = (   0.5556599   0.2050495   1.4076467  )
       245           N   tau( 245) = (   0.7041126   0.1107525   1.4187272  )
       246           N   tau( 246) = (   0.7185419   0.2715410   1.4133623  )
       247           N   tau( 247) = (   0.7867026   0.0198260   1.7464338  )
       248           N   tau( 248) = (   0.7915415   0.1887372   1.7512202  )
       249           N   tau( 249) = (   0.6533442   0.1954744   1.5500810  )
       250           O   tau( 250) = (   0.3218968   0.5912440   1.5729727  )
       251           Li  tau( 251) = (   0.7593284   0.3759836   0.8766270  )
       252           Li  tau( 252) = (   0.6280565   0.4696050   0.8766270  )
       253           Li  tau( 253) = (   0.6126161   0.3091127   0.8766270  )
       254           Li  tau( 254) = (   0.4080833   0.4938309   1.2793728  )
       255           Li  tau( 255) = (   0.5485610   0.4008523   1.2775669  )
       256           Li  tau( 256) = (   0.5514521   0.5732614   1.2820552  )
       257           Li  tau( 257) = (   0.5669941   0.3791318   1.0336250  )
       258           Li  tau( 258) = (   0.7214991   0.3014656   1.0336250  )
       259           Li  tau( 259) = (   0.7115055   0.4741032   1.0336250  )
       260           Li  tau( 260) = (   0.5939498   0.4963514   1.1138305  )
       261           Li  tau( 261) = (   0.7757506  -0.0035613   1.1179273  )
       262           Li  tau( 262) = (   0.4498493   0.4186502   1.1309832  )
       263           Li  tau( 263) = (   0.5000000   0.2886750   0.9626942  )
       264           Li  tau( 264) = (   0.4883683   0.3034409   1.1902841  )
       265           Cr  tau( 265) = (   0.6688255   0.3815314   1.2035153  )
       266           Cr  tau( 266) = (   0.5000000   0.4811250   0.9478909  )
       267           N   tau( 267) = (   0.7611693   0.3784410   1.2387791  )
       268           N   tau( 268) = (   0.6737170   0.3775340   1.0996818  )
       269           N   tau( 269) = (   0.4030661   0.4869528   0.9168466  )
       270           N   tau( 270) = (   0.5434199   0.3942641   0.9168466  )
       271           N   tau( 271) = (   0.5535140   0.5621587   0.9168466  )
       272           N   tau( 272) = (   0.6149772   0.3079742   1.2402226  )
       273           N   tau( 273) = (   0.6350344   0.4677220   1.2421746  )
       274           N   tau( 274) = (   0.5000000   0.4811250   1.0497374  )
       275           O   tau( 275) = (   0.4876465   0.2831032   1.0806239  )
       276           Li  tau( 276) = (   0.7564882   0.3718868   1.3728270  )
       277           Li  tau( 277) = (   0.6278461   0.4749787   1.3689290  )
       278           Li  tau( 278) = (   0.6179285   0.3154221   1.3848018  )
       279           Li  tau( 279) = (   0.6535663   0.0142589   1.6881731  )
       280           Li  tau( 280) = (   0.5407339   0.3746043   1.7977866  )
       281           Li  tau( 281) = (   0.5370737   0.5386078   1.8107256  )
       282           Li  tau( 282) = (   0.5745752   0.3930018   1.5308829  )
       283           Li  tau( 283) = (   0.7195471   0.3115141   1.5197088  )
       284           Li  tau( 284) = (   0.7159412   0.4812168   1.5336472  )
       285           Li  tau( 285) = (   0.6048609   0.4914230   1.6153780  )
       286           Li  tau( 286) = (   0.3827412   0.4815236   1.7663858  )
       287           Li  tau( 287) = (   0.4557180   0.4378395   1.6479360  )
       288           Li  tau( 288) = (   0.4878499   0.2885371   1.4677073  )
       289           Li  tau( 289) = (   0.5152194   0.3003610   1.6803945  )
       290           Cr  tau( 290) = (   0.6630280   0.3878665   1.7138700  )
       291           Cr  tau( 291) = (   0.4995371   0.4889095   1.4442429  )
       292           N   tau( 292) = (   0.7591765   0.3804064   1.7290824  )
       293           N   tau( 293) = (   0.6615787   0.3884661   1.6076813  )
       294           N   tau( 294) = (   0.3980325   0.4888598   1.4143499  )
       295           N   tau( 295) = (   0.5512680   0.4036324   1.4142331  )
       296           N   tau( 296) = (   0.5473448   0.5739803   1.4136662  )
       297           N   tau( 297) = (   0.6142408   0.3043076   1.7464747  )
       298           N   tau( 298) = (   0.6238954   0.4742827   1.7451247  )
       299           N   tau( 299) = (   0.5021039   0.4898644   1.5473401  )
       300           O   tau( 300) = (   0.5087394   0.2907181   1.5791733  )

   Crystallographic axes

     site n.     atom                  positions (cryst. coord.)
         1           Li  tau(   1) = (  0.3097346  0.1512218  0.3321863  )
         2           Li  tau(   2) = (  0.2325188  0.3133799  0.3321863  )
         3           Li  tau(   3) = (  0.1244139  0.0353984  0.3321863  )
         4           Li  tau(   4) = (  0.0169543  0.3530608  0.4852754  )
         5           Li  tau(   5) = (  0.0909776  0.1870946  0.4831162  )
         6           Li  tau(   6) = (  0.2157683  0.4938413  0.4842235  )
         7           Li  tau(   7) = (  0.1192194  0.1566758  0.3916786  )
         8           Li  tau(   8) = (  0.2288830  0.0221536  0.3916786  )
         9           Li  tau(   9) = (  0.3185643  0.3211711  0.3916786  )
        10           Li  tau(  10) = (  0.2217835  0.3525719  0.4233227  )
        11           Li  tau(  11) = (  0.0955788  0.4596296  0.4275437  )
        12           Li  tau(  12) = (  0.0133174  0.1711954  0.4198547  )
        13           Li  tau(  13) = (  0.0000000  0.0000000  0.3648003  )
        14           Li  tau(  14) = (  0.9894101 -0.0117053  0.4531154  )
        15           Cr  tau(  15) = (  0.2172461  0.1687133  0.4523558  )
        16           Cr  tau(  16) = (  0.1111111  0.3333332  0.3591908  )
        17           N   tau(  17) = (  0.3084203  0.1476769  0.4674725  )
        18           N   tau(  18) = (  0.2188619  0.1519729  0.4155717  )
        19           N   tau(  19) = (  0.0175419  0.3434273  0.3474270  )
        20           N   tau(  20) = (  0.1043816  0.1828847  0.3474270  )
        21           N   tau(  21) = (  0.2114100  0.4736876  0.3474270  )
        22           N   tau(  22) = (  0.1121949  0.0367503  0.4674104  )
        23           N   tau(  23) = (  0.2428858  0.3311771  0.4648925  )
        24           N   tau(  24) = (  0.1111111  0.3333332  0.3977842  )
        25           O   tau(  25) = (  0.9951179  1.0020554  0.4049395  )
        26           Li  tau(  26) = (  0.3236278  0.1573965  0.5241412  )
        27           Li  tau(  27) = (  0.2480764  0.3013170  0.5193821  )
        28           Li  tau(  28) = (  0.1365531  0.0542923  0.5116267  )
        29           Li  tau(  29) = (  0.0145920  0.3730019  0.6789024  )
        30           Li  tau(  30) = (  0.1031906  0.1856137  0.6872535  )
        31           Li  tau(  31) = (  0.1580745  0.4000268  0.6530295  )
        32           Li  tau(  32) = (  0.1062164  0.1376679  0.5829692  )
        33           Li  tau(  33) = (  0.2245877  0.0233340  0.5740998  )
        34           Li  tau(  34) = (  0.3262829  0.3394947  0.5751407  )
        35           Li  tau(  35) = (  0.2281841  0.3631862  0.6085387  )
        36           Li  tau(  36) = (  0.1160704  0.5056845  0.6090037  )
        37           Li  tau(  37) = (  0.0349625  0.2018025  0.6177159  )
        38           Li  tau(  38) = (  0.0199484  0.0177039  0.5449383  )
        39           Li  tau(  39) = (  0.9840023  1.0325269  0.6509345  )
        40           Cr  tau(  40) = (  0.2214022  0.1682356  0.6468752  )
        41           Cr  tau(  41) = (  0.1197473  0.3385138  0.5486521  )
        42           N   tau(  42) = (  0.3135278  0.1667375  0.6621469  )
        43           N   tau(  43) = (  0.2347246  0.1577285  0.6087424  )
        44           N   tau(  44) = (  0.0155038  0.3384298  0.5327626  )
        45           N   tau(  45) = (  0.1159564  0.1939425  0.5303708  )
        46           N   tau(  46) = (  0.2052681  0.4843799  0.5359360  )
        47           N   tau(  47) = (  0.1141562  0.0367309  0.6604107  )
        48           N   tau(  48) = (  0.2323857  0.3317177  0.6526087  )
        49           N   tau(  49) = (  0.1056466  0.3159044  0.5876508  )
        50           O   tau(  50) = (  0.0069113 -0.0076659  0.5943477  )
        51           Li  tau(  51) = (  0.3097348  0.6512226  0.3321863  )
        52           Li  tau(  52) = (  0.2325186  0.8133797  0.3321863  )
        53           Li  tau(  53) = (  0.1244139  0.5353989  0.3321863  )
        54           Li  tau(  54) = (  0.0135553  0.8348058  0.4842988  )
        55           Li  tau(  55) = (  0.0867054  0.6533817  0.4918926  )
        56           Li  tau(  56) = (  0.2212137  1.0028976  0.4846708  )
        57           Li  tau(  57) = (  0.1192194  0.6566756  0.3916786  )
        58           Li  tau(  58) = (  0.2288831  0.5221537  0.3916786  )
        59           Li  tau(  59) = (  0.3185642  0.8211709  0.3916786  )
        60           Li  tau(  60) = (  0.2092024  0.8504247  0.4259315  )
        61           Li  tau(  61) = (  0.1128325  0.9991604  0.4218256  )
        62           Li  tau(  62) = (  0.0196544  0.6714836  0.4193475  )
        63           Li  tau(  63) = ( -0.0000001  0.4999998  0.3648003  )
        64           Li  tau(  64) = (  0.0172858  0.5318388  0.4463919  )
        65           Cr  tau(  65) = (  0.2197293  0.6632015  0.4541319  )
        66           Cr  tau(  66) = (  0.1111110  0.8333330  0.3591908  )
        67           N   tau(  67) = (  0.3150817  0.6641601  0.4678888  )
        68           N   tau(  68) = (  0.2245456  0.6653687  0.4168893  )
        69           N   tau(  69) = (  0.0175418  0.8434271  0.3474270  )
        70           N   tau(  70) = (  0.1043818  0.6828855  0.3474270  )
        71           N   tau(  71) = (  0.2114098  0.9736874  0.3474270  )
        72           N   tau(  72) = (  0.1241545  0.5229797  0.4679973  )
        73           N   tau(  73) = (  0.2354974  0.8089967  0.4693238  )
        74           N   tau(  74) = (  0.1111110  0.8333330  0.3977842  )
        75           O   tau(  75) = (  0.9952746  0.5026903  0.4077498  )
        76           Li  tau(  76) = (  0.3005635  0.6593155  0.5187930  )
        77           Li  tau(  77) = (  0.2334021  0.8084703  0.5270645  )
        78           Li  tau(  78) = (  0.1230934  0.5188356  0.5208105  )
        79           Li  tau(  79) = (  0.0294114  0.8653886  0.6696720  )
        80           Li  tau(  80) = (  0.0956501  0.6687212  0.6753967  )
        81           Li  tau(  81) = (  0.1652947  0.9568427  0.6800407  )
        82           Li  tau(  82) = (  0.1230913  0.6722135  0.5847829  )
        83           Li  tau(  83) = (  0.2377722  0.5553390  0.5798577  )
        84           Li  tau(  84) = (  0.3204171  0.8237197  0.5853211  )
        85           Li  tau(  85) = (  0.2192235  0.8407436  0.6129302  )
        86           Li  tau(  86) = (  0.1012029  0.9882474  0.6135458  )
        87           Li  tau(  87) = (  0.0159648  0.7105420  0.6139998  )
        88           Li  tau(  88) = (  1.0035826  0.4797681  0.5532496  )
        89           Li  tau(  89) = (  1.0045798  0.5066563  0.6408892  )
        90           Cr  tau(  90) = (  0.2125937  0.6658040  0.6526176  )
        91           Cr  tau(  91) = (  0.1106066  0.8427671  0.5476755  )
        92           N   tau(  92) = (  0.3163772  0.6841377  0.6668374  )
        93           N   tau(  93) = (  0.2228122  0.6602690  0.6153573  )
        94           N   tau(  94) = (  0.0192403  0.8546731  0.5338521  )
        95           N   tau(  95) = (  0.0995351  0.6873789  0.5346981  )
        96           N   tau(  96) = (  0.2115159  0.9674661  0.5339274  )
        97           N   tau(  97) = (  0.1088529  0.5246114  0.6598836  )
        98           N   tau(  98) = (  0.2066665  0.8107570  0.6623351  )
        99           N   tau(  99) = (  0.1103961  0.8560335  0.5853011  )
       100           O   tau( 100) = (  0.0027308  0.5105311  0.5942414  )
       101           Li  tau( 101) = (  0.6430655  0.1512218  0.3321863  )
       102           Li  tau( 102) = (  0.5658521  0.3133799  0.3321863  )
       103           Li  tau( 103) = (  0.4577472  0.0353984  0.3321863  )
       104           Li  tau( 104) = (  0.3621516  0.3577464  0.4849809  )
       105           Li  tau( 105) = (  0.4246984  0.1918431  0.4661393  )
       106           Li  tau( 106) = (  0.5399558  0.4621166  0.4873128  )
       107           Li  tau( 107) = (  0.4525527  0.1566758  0.3916786  )
       108           Li  tau( 108) = (  0.5622164  0.0221536  0.3916786  )
       109           Li  tau( 109) = (  0.6518976  0.3211711  0.3916786  )
       110           Li  tau( 110) = (  0.5523126  0.3465136  0.4240889  )
       111           Li  tau( 111) = (  0.4433584  0.4953141  0.4207183  )
       112           Li  tau( 112) = (  0.3344708  0.1609161  0.4206120  )
       113           Li  tau( 113) = (  0.3333333  0.0000000  0.3648003  )
       114           Li  tau( 114) = (  0.3354883  0.9790188  0.4511222  )
       115           Cr  tau( 115) = (  0.5570643  0.1703269  0.4582642  )
       116           Cr  tau( 116) = (  0.4444444  0.3333332  0.3591908  )
       117           N   tau( 117) = (  0.6502384  0.1560320  0.4703049  )
       118           N   tau( 118) = (  0.5523840  0.1544205  0.4183864  )
       119           N   tau( 119) = (  0.3508752  0.3434273  0.3474270  )
       120           N   tau( 120) = (  0.4377148  0.1828847  0.3474270  )
       121           N   tau( 121) = (  0.5447432  0.4736876  0.3474270  )
       122           N   tau( 122) = (  0.4493408  0.0361485  0.4685266  )
       123           N   tau( 123) = (  0.5683981  0.3294563  0.4691201  )
       124           N   tau( 124) = (  0.4444444  0.3333332  0.3977842  )
       125           O   tau( 125) = (  0.3266223  1.0037904  0.4048620  )
       126           Li  tau( 126) = (  0.6504018  0.9894368  0.5517658  )
       127           Li  tau( 127) = (  0.5563736  0.3172568  0.5182283  )
       128           Li  tau( 128) = (  0.6239267  0.1592226  0.5184520  )
       129           Li  tau( 129) = (  0.3534009  0.3693153  0.6663258  )
       130           Li  tau( 130) = (  0.4343630  0.1899603  0.6717670  )
       131           Li  tau( 131) = (  0.5365432  0.4579573  0.6738554  )
       132           Li  tau( 132) = (  0.4409615  0.1579735  0.5826436  )
       133           Li  tau( 133) = (  0.3476945  0.8483162  0.6855262  )
       134           Li  tau( 134) = (  0.6423308  0.3274865  0.5783252  )
       135           Li  tau( 135) = (  0.5461683  0.3326955  0.6112117  )
       136           Li  tau( 136) = (  0.4215265  0.5002205  0.6131804  )
       137           Li  tau( 137) = (  0.3569566  0.1702337  0.6121307  )
       138           Li  tau( 138) = (  0.4585649  0.0530593  0.5216166  )
       139           Li  tau( 139) = (  0.4295862  0.9660844  0.6190823  )
       140           Cr  tau( 140) = (  0.5502723  0.1671363  0.6461776  )
       141           Cr  tau( 141) = (  0.4527680  0.3427754  0.5510727  )
       142           N   tau( 142) = (  0.6500484  0.1717146  0.6561011  )
       143           N   tau( 143) = (  0.5422526  0.1673509  0.6081201  )
       144           N   tau( 144) = (  0.3625757  0.3609542  0.5360689  )
       145           N   tau( 145) = (  0.4351316  0.1783489  0.5390785  )
       146           N   tau( 146) = (  0.5547244  0.4825994  0.5374353  )
       147           N   tau( 147) = (  0.4556550  0.0131794  0.6635399  )
       148           N   tau( 148) = (  0.5551522  0.3143850  0.6602025  )
       149           N   tau( 149) = (  0.4441341  0.3388054  0.5888710  )
       150           O   tau( 150) = (  0.3336301 -0.0117120  0.5949589  )
       151           Li  tau( 151) = (  0.6430682  0.6512226  0.3321863  )
       152           Li  tau( 152) = (  0.5658520  0.8133797  0.3321863  )
       153           Li  tau( 153) = (  0.4577474  0.5353989  0.3321863  )
       154           Li  tau( 154) = (  0.3516640  0.8382636  0.4815394  )
       155           Li  tau( 155) = (  0.4294265  0.6818115  0.4784966  )
       156           Li  tau( 156) = (  0.5358392  0.9621519  0.4881123  )
       157           Li  tau( 157) = (  0.4525527  0.6566756  0.3916786  )
       158           Li  tau( 158) = (  0.5622164  0.5221537  0.3916786  )
       159           Li  tau( 159) = (  0.6518976  0.8211709  0.3916786  )
       160           Li  tau( 160) = (  0.5573858  0.8652469  0.4221512  )
       161           Li  tau( 161) = (  0.4467697  0.9824473  0.4246514  )
       162           Li  tau( 162) = (  0.3450295  0.6960285  0.4222597  )
       163           Li  tau( 163) = (  0.3333333  0.4999998  0.3648003  )
       164           Li  tau( 164) = (  0.3385442  0.4963608  0.4556090  )
       165           Cr  tau( 165) = (  0.5598987  0.6774204  0.4558991  )
       166           Cr  tau( 166) = (  0.4444443  0.8333330  0.3591908  )
       167           N   tau( 167) = (  0.6529388  0.6654426  0.4709338  )
       168           N   tau( 168) = (  0.5559157  0.6943178  0.4176932  )
       169           N   tau( 169) = (  0.3508751  0.8434271  0.3474270  )
       170           N   tau( 170) = (  0.4377151  0.6828855  0.3474270  )
       171           N   tau( 171) = (  0.5447431  0.9736874  0.3474270  )
       172           N   tau( 172) = (  0.4615306  0.5412679  0.4695121  )
       173           N   tau( 173) = (  0.5641793  0.8197224  0.4680460  )
       174           N   tau( 174) = (  0.4444443  0.8333330  0.3977842  )
       175           O   tau( 175) = (  0.3368416  0.5070096  0.4050170  )
       176           Li  tau( 176) = (  0.6461479  0.6678517  0.5138789  )
       177           Li  tau( 177) = (  0.5559604  0.8158242  0.5185073  )
       178           Li  tau( 178) = (  0.4623146  0.5445334  0.5246085  )
       179           Li  tau( 179) = (  0.3378849  1.0175255  0.6471764  )
       180           Li  tau( 180) = (  0.4417377  0.7318628  0.6654488  )
       181           Li  tau( 181) = (  0.5488966  0.9853818  0.6723539  )
       182           Li  tau( 182) = (  0.4461828  0.6557716  0.5759224  )
       183           Li  tau( 183) = (  0.5794799  0.5564677  0.5929016  )
       184           Li  tau( 184) = (  0.6449564  0.8418206  0.5826946  )
       185           Li  tau( 185) = (  0.5642531  0.8751608  0.6133753  )
       186           Li  tau( 186) = (  0.3322084  0.9996534  0.5542617  )
       187           Li  tau( 187) = (  0.3588421  0.7167936  0.6212836  )
       188           Li  tau( 188) = (  0.3134491  0.4912459  0.5506608  )
       189           Li  tau( 189) = (  0.3045153  0.5189884  0.6622266  )
       190           Cr  tau( 190) = (  0.5519437  0.6646955  0.6457125  )
       191           Cr  tau( 191) = (  0.4372007  0.8336599  0.5451664  )
       192           N   tau( 192) = (  0.6420939  0.6436834  0.6618324  )
       193           N   tau( 193) = (  0.5577245  0.6837318  0.6047097  )
       194           N   tau( 194) = (  0.3478496  0.8554140  0.5367864  )
       195           N   tau( 195) = (  0.4281153  0.6808793  0.5348730  )
       196           N   tau( 196) = (  0.5354901  0.9641622  0.5326629  )
       197           N   tau( 197) = (  0.4425656  0.5501462  0.6571220  )
       198           N   tau( 198) = (  0.5710766  0.8205079  0.6513553  )
       199           N   tau( 199) = (  0.4459552  0.8408428  0.5900381  )
       200           O   tau( 200) = (  0.3201860  0.4949781  0.5889818  )
       201           Li  tau( 201) = (  0.9764000  0.1512218  0.3321863  )
       202           Li  tau( 202) = (  0.8991866  0.3133799  0.3321863  )
       203           Li  tau( 203) = (  0.7910799  0.0353984  0.3321863  )
       204           Li  tau( 204) = (  0.6819287  0.3880793  0.4857826  )
       205           Li  tau( 205) = (  0.7644492  0.2155488  0.4826423  )
       206           Li  tau( 206) = (  0.8800365  0.4892002  0.4816324  )
       207           Li  tau( 207) = (  0.7858861  0.1566758  0.3916786  )
       208           Li  tau( 208) = (  0.8955479  0.0221536  0.3916786  )
       209           Li  tau( 209) = (  0.9852327  0.3211711  0.3916786  )
       210           Li  tau( 210) = (  0.8881836  0.3619675  0.4254265  )
       211           Li  tau( 211) = (  0.7775590  0.4887447  0.4240313  )
       212           Li  tau( 212) = (  0.6777017  0.1709038  0.4248530  )
       213           Li  tau( 213) = (  0.6666690  0.0000000  0.3648003  )
       214           Li  tau( 214) = (  0.6743001  0.0002064  0.4582487  )
       215           Cr  tau( 215) = (  0.8909462  0.1719971  0.4585389  )
       216           Cr  tau( 216) = (  0.7777800  0.3333332  0.3591908  )
       217           N   tau( 217) = (  0.9817056  0.1568468  0.4668856  )
       218           N   tau( 218) = (  0.8870327  0.1705658  0.4192036  )
       219           N   tau( 219) = (  0.6842085  0.3434273  0.3474270  )
       220           N   tau( 220) = (  0.7710469  0.1828847  0.3474270  )
       221           N   tau( 221) = (  0.8780741  0.4736876  0.3474270  )
       222           N   tau( 222) = (  0.7897505  0.0359335  0.4706083  )
       223           N   tau( 223) = (  0.9073024  0.3249812  0.4688676  )
       224           N   tau( 224) = (  0.7777800  0.3333332  0.3977842  )
       225           O   tau( 225) = (  0.6633840  0.9999581  0.4051477  )
       226           Li  tau( 226) = (  0.9772336  0.1691162  0.5204606  )
       227           Li  tau( 227) = (  0.8995843  0.3557220  0.5119145  )
       228           Li  tau( 228) = (  0.8110218  0.0797602  0.5205071  )
       229           Li  tau( 229) = (  0.6975893  0.3559052  0.6738930  )
       230           Li  tau( 230) = (  0.7683602  0.2015616  0.6698580  )
       231           Li  tau( 231) = (  0.8931763  0.4822633  0.6768849  )
       232           Li  tau( 232) = (  0.7673801  0.1414476  0.5882044  )
       233           Li  tau( 233) = (  0.9087770  0.0186933  0.5775169  )
       234           Li  tau( 234) = (  0.9612656  0.3028667  0.5803161  )
       235           Li  tau( 235) = (  0.8328734  0.3421002  0.6207720  )
       236           Li  tau( 236) = (  0.7765238  0.4923017  0.6130874  )
       237           Li  tau( 237) = (  0.6507022  0.1670836  0.6072011  )
       238           Li  tau( 238) = (  0.5411418  0.0274155  0.5785290  )
       239           Li  tau( 239) = (  0.7691062  0.9842764  0.6170271  )
       240           Cr  tau( 240) = (  0.9017008  0.1823452  0.6498095  )
       241           Cr  tau( 241) = (  0.7693438  0.3304837  0.5479634  )
       242           N   tau( 242) = (  0.0039639  0.2028299  0.6671939  )
       243           N   tau( 243) = (  0.9097949  0.1378825  0.6119580  )
       244           N   tau( 244) = (  0.6740453  0.3551561  0.5334092  )
       245           N   tau( 245) = (  0.7680556  0.1918289  0.5376080  )
       246           N   tau( 246) = (  0.8753162  0.4703229  0.5355751  )
       247           N   tau( 247) = (  0.7981491  0.0343396  0.6617881  )
       248           N   tau( 248) = (  0.9005090  0.3269024  0.6636019  )
       249           N   tau( 249) = (  0.7662014  0.3385715  0.5873828  )
       250           O   tau( 250) = (  0.6632517  1.0240646  0.5960573  )
       251           Li  tau( 251) = (  0.9764026  0.6512226  0.3321863  )
       252           Li  tau( 252) = (  0.8991830  0.8133797  0.3321863  )
       253           Li  tau( 253) = (  0.7910824  0.5353989  0.3321863  )
       254           Li  tau( 254) = (  0.6931967  0.8553401  0.4848015  )
       255           Li  tau( 255) = (  0.7799932  0.6942965  0.4841172  )
       256           Li  tau( 256) = (  0.8824248  0.9929179  0.4858180  )
       257           Li  tau( 257) = (  0.7858860  0.6566756  0.3916786  )
       258           Li  tau( 258) = (  0.8955503  0.5221537  0.3916786  )
       259           Li  tau( 259) = (  0.9852291  0.8211709  0.3916786  )
       260           Li  tau( 260) = (  0.8805185  0.8597059  0.4220714  )
       261           Li  tau( 261) = (  0.7736944 -0.0061684  0.4236239  )
       262           Li  tau( 262) = (  0.6915571  0.7251233  0.4285712  )
       263           Li  tau( 263) = (  0.6666666  0.4999998  0.3648003  )
       264           Li  tau( 264) = (  0.6635600  0.5255751  0.4510425  )
       265           Cr  tau( 265) = (  0.8891027  0.6608318  0.4560563  )
       266           Cr  tau( 266) = (  0.7777776  0.8333330  0.3591908  )
       267           N   tau( 267) = (  0.9796624  0.6554791  0.4694191  )
       268           N   tau( 268) = (  0.8916864  0.6539081  0.4167100  )
       269           N   tau( 269) = (  0.6842084  0.8434271  0.3474270  )
       270           N   tau( 270) = (  0.7710484  0.6828855  0.3474270  )
       271           N   tau( 271) = (  0.8780764  0.9736874  0.3474270  )
       272           N   tau( 272) = (  0.7927862  0.5334270  0.4699661  )
       273           N   tau( 273) = (  0.9050738  0.8101182  0.4707057  )
       274           N   tau( 274) = (  0.7777776  0.8333330  0.3977842  )
       275           O   tau( 275) = (  0.6510962  0.4903491  0.4094882  )
       276           Li  tau( 276) = (  0.9711971  0.6441268  0.5202148  )
       277           Li  tau( 277) = (  0.9020752  0.8226872  0.5187377  )
       278           Li  tau( 278) = (  0.8000375  0.5463271  0.5247524  )
       279           Li  tau( 279) = (  0.6617987  0.0246972  0.6397110  )
       280           Li  tau( 280) = (  0.7570118  0.6488337  0.6812476  )
       281           Li  tau( 281) = (  0.8480390  0.9328961  0.6861507  )
       282           Li  tau( 282) = (  0.8014749  0.6806991  0.5801080  )
       283           Li  tau( 283) = (  0.8993998  0.5395582  0.5758737  )
       284           Li  tau( 284) = (  0.9937719  0.8334919  0.5811555  )
       285           Li  tau( 285) = (  0.8885841  0.8511697  0.6121263  )
       286           Li  tau( 286) = (  0.6607490  0.8340233  0.6693487  )
       287           Li  tau( 287) = (  0.7085048  0.7583603  0.6244637  )
       288           Li  tau( 288) = (  0.6544369  0.4997609  0.5561684  )
       289           Li  tau( 289) = (  0.6886329  0.5202406  0.6367634  )
       290           Cr  tau( 290) = (  0.8869629  0.6718045  0.6494485  )
       291           Cr  tau( 291) = (  0.7818091  0.8468160  0.5472769  )
       292           N   tau( 292) = (  0.9788042  0.6588833  0.6552131  )
       293           N   tau( 293) = (  0.8858597  0.6728431  0.6092097  )
       294           N   tau( 294) = (  0.6802758  0.8467300  0.5359493  )
       295           N   tau( 295) = (  0.7843053  0.6991118  0.5359050  )
       296           N   tau( 296) = (  0.8787325  0.9941630  0.5356902  )
       297           N   tau( 297) = (  0.7899329  0.5270762  0.6618036  )
       298           N   tau( 298) = (  0.8977226  0.8214817  0.6612921  )
       299           N   tau( 299) = (  0.7849272  0.8484700  0.5863442  )
       300           O   tau( 300) = (  0.6765855  0.5035386  0.5984070  )

     number of k points=     1  Gaussian smearing, width (Ry)=  0.0147
                       cart. coord. in units 2pi/alat
        k(    1) = (   0.0000000   0.0000000   0.0000000), wk =   2.0000000

                       cryst. coord.
        k(    1) = (   0.0000000   0.0000000   0.0000000), wk =   2.0000000

     Dense  grid:  5457965 G-vectors     FFT dimensions: ( 240, 160, 640)

     Smooth grid:  2970742 G-vectors     FFT dimensions: ( 200, 135, 540)

     Dynamical RAM for                 wfc:    1182.84 MB

     Dynamical RAM for     wfc (w. buffer):    1182.84 MB

     Dynamical RAM for           str. fact:      83.28 MB

     Dynamical RAM for           local pot:       0.00 MB

     Dynamical RAM for          nlocal pot:    3977.76 MB

     Dynamical RAM for                qrad:       7.46 MB

     Dynamical RAM for          rho,v,vnew:     203.09 MB

     Dynamical RAM for               rhoin:      67.70 MB

     Dynamical RAM for            rho*nmix:     333.13 MB

     Dynamical RAM for           G-vectors:      83.74 MB

     Dynamical RAM for          h,s,v(r/c):      63.83 MB

     Dynamical RAM for          <psi|beta>:      17.89 MB

     Dynamical RAM for                 psi:    2365.69 MB

     Dynamical RAM for                hpsi:    2365.69 MB

     Dynamical RAM for                spsi:    2365.69 MB

     Dynamical RAM for      wfcinit/wfcrot:    4336.08 MB

     Dynamical RAM for           addusdens:    7370.47 MB

     Dynamical RAM for          addusforce:   14335.60 MB

     Dynamical RAM for         addusstress:    4184.93 MB

     Estimated static dynamical RAM per process >       5.81 GB

     Estimated max dynamical RAM per process >      20.13 GB

     Estimated total dynamical RAM >      80.52 GB

     Check: negative core charge=   -0.000002

     Initial potential from superposition of free atoms

     starting charge    1292.2742, renormalised to    1392.0000

     negative rho (up, down):  2.529E-02 0.000E+00
     Starting wfcs are 1512 randomized atomic wfcs
     Checking if some PAW data can be deallocated... 

     total cpu time spent up to now is       35.4 secs

     per-process dynamical memory:  1708.6 Mb

     Self-consistent Calculation
[tb_dev] Currently allocated     1.26E+02 Mbytes, locked:    0 /  11
[tb_pin] Currently allocated     0.00E+00 Mbytes, locked:    0 /   0

     iteration #  1     ecut=    90.00 Ry     beta= 0.20
     Davidson diagonalization with overlap

---- Real-time Memory Report at c_bands before calling an iterative solver
         10171 MiB given to the printing process from OS
          1746 MiB allocation reported by mallinfo(arena+hblkhd)
        465809 MiB available memory on the node where the printing process lives
     GPU memory used/free/total (MiB): 16367 / 48601 / 64969
------------------
     ethr =  1.00E-02,  avg # of iterations =  3.0

     negative rho (up, down):  4.142E-02 0.000E+00

     total cpu time spent up to now is       39.2 secs

     total energy              =   -9071.67541809 Ry
     estimated scf accuracy    <     237.14084170 Ry
[tb_dev] Currently allocated     2.41E+01 Mbytes, locked:    0 /   6
[tb_pin] Currently allocated     0.00E+00 Mbytes, locked:    0 /   0

     iteration #  2     ecut=    90.00 Ry     beta= 0.20
     Davidson diagonalization with overlap

---- Real-time Memory Report at c_bands before calling an iterative solver
         10502 MiB given to the printing process from OS
          2013 MiB allocation reported by mallinfo(arena+hblkhd)
        464857 MiB available memory on the node where the printing process lives
     GPU memory used/free/total (MiB): 31251 / 33717 / 64969
------------------
     ethr =  1.00E-02,  avg # of iterations =  5.0

     negative rho (up, down):  6.248E-02 0.000E+00

     total cpu time spent up to now is       42.9 secs

     total energy              =   -9072.98246099 Ry
     estimated scf accuracy    <      39.61268826 Ry
[tb_dev] Currently allocated     2.41E+01 Mbytes, locked:    0 /   6
[tb_pin] Currently allocated     0.00E+00 Mbytes, locked:    0 /   0

     iteration #  3     ecut=    90.00 Ry     beta= 0.20
     Davidson diagonalization with overlap

---- Real-time Memory Report at c_bands before calling an iterative solver
         10526 MiB given to the printing process from OS
          2037 MiB allocation reported by mallinfo(arena+hblkhd)
        464728 MiB available memory on the node where the printing process lives
     GPU memory used/free/total (MiB): 31251 / 33717 / 64969
------------------
     ethr =  2.85E-03,  avg # of iterations =  8.0

     negative rho (up, down):  4.672E-02 0.000E+00

     total cpu time spent up to now is       48.4 secs

     total energy              =   -9091.37804825 Ry
     estimated scf accuracy    <     434.86443073 Ry
[tb_dev] Currently allocated     2.41E+01 Mbytes, locked:    0 /   6
[tb_pin] Currently allocated     0.00E+00 Mbytes, locked:    0 /   0

     iteration #  4     ecut=    90.00 Ry     beta= 0.20
     Davidson diagonalization with overlap

---- Real-time Memory Report at c_bands before calling an iterative solver
         10529 MiB given to the printing process from OS
         -2035 MiB allocation reported by mallinfo(arena+hblkhd)
        464512 MiB available memory on the node where the printing process lives
     GPU memory used/free/total (MiB): 31251 / 33717 / 64969
------------------
     ethr =  2.85E-03,  avg # of iterations =  2.0

     negative rho (up, down):  4.166E-02 0.000E+00

     total cpu time spent up to now is       51.9 secs

     total energy              =   -9090.27196178 Ry
     estimated scf accuracy    <     337.07269313 Ry
[tb_dev] Currently allocated     2.41E+01 Mbytes, locked:    0 /   6
[tb_pin] Currently allocated     0.00E+00 Mbytes, locked:    0 /   0

     iteration #  5     ecut=    90.00 Ry     beta= 0.20
     Davidson diagonalization with overlap

---- Real-time Memory Report at c_bands before calling an iterative solver
         10552 MiB given to the printing process from OS
         -2011 MiB allocation reported by mallinfo(arena+hblkhd)
        464406 MiB available memory on the node where the printing process lives
     GPU memory used/free/total (MiB): 31251 / 33717 / 64969
------------------
     ethr =  2.85E-03,  avg # of iterations =  2.0

     negative rho (up, down):  3.562E-02 0.000E+00

     total cpu time spent up to now is       55.3 secs

     total energy              =   -9094.57588833 Ry
     estimated scf accuracy    <      12.86767040 Ry
[tb_dev] Currently allocated     2.41E+01 Mbytes, locked:    0 /   6
[tb_pin] Currently allocated     0.00E+00 Mbytes, locked:    0 /   0

     iteration #  6     ecut=    90.00 Ry     beta= 0.20
     Davidson diagonalization with overlap

---- Real-time Memory Report at c_bands before calling an iterative solver
         10576 MiB given to the printing process from OS
         -1988 MiB allocation reported by mallinfo(arena+hblkhd)
        464303 MiB available memory on the node where the printing process lives
     GPU memory used/free/total (MiB): 31251 / 33717 / 64969
------------------
     ethr =  9.24E-04,  avg # of iterations =  2.0

     negative rho (up, down):  2.839E-02 0.000E+00

     total cpu time spent up to now is       58.9 secs

     total energy              =   -9103.05602752 Ry
     estimated scf accuracy    <      16.25010206 Ry
[tb_dev] Currently allocated     2.41E+01 Mbytes, locked:    0 /   6
[tb_pin] Currently allocated     0.00E+00 Mbytes, locked:    0 /   0

     iteration #  7     ecut=    90.00 Ry     beta= 0.20
     Davidson diagonalization with overlap

---- Real-time Memory Report at c_bands before calling an iterative solver
         10599 MiB given to the printing process from OS
         -1964 MiB allocation reported by mallinfo(arena+hblkhd)
        464150 MiB available memory on the node where the printing process lives
     GPU memory used/free/total (MiB): 31251 / 33717 / 64969
------------------
     ethr =  9.24E-04,  avg # of iterations =  7.0

     negative rho (up, down):  3.620E-02 0.000E+00

     total cpu time spent up to now is       63.4 secs

     total energy              =   -9087.93745796 Ry
     estimated scf accuracy    <      74.64118606 Ry
[tb_dev] Currently allocated     2.41E+01 Mbytes, locked:    0 /   6
[tb_pin] Currently allocated     0.00E+00 Mbytes, locked:    0 /   0

     iteration #  8     ecut=    90.00 Ry     beta= 0.20
     Davidson diagonalization with overlap

---- Real-time Memory Report at c_bands before calling an iterative solver
         10623 MiB given to the printing process from OS
         -1941 MiB allocation reported by mallinfo(arena+hblkhd)
        464151 MiB available memory on the node where the printing process lives
     GPU memory used/free/total (MiB): 31593 / 33375 / 64969
------------------
     ethr =  9.24E-04,  avg # of iterations =  5.0

     negative rho (up, down):  3.477E-02 0.000E+00

     total cpu time spent up to now is       68.1 secs

     total energy              =   -9095.82266862 Ry
     estimated scf accuracy    <       1.45290351 Ry
[tb_dev] Currently allocated     2.41E+01 Mbytes, locked:    0 /   6
[tb_pin] Currently allocated     0.00E+00 Mbytes, locked:    0 /   0

     iteration #  9     ecut=    90.00 Ry     beta= 0.20
     Davidson diagonalization with overlap

---- Real-time Memory Report at c_bands before calling an iterative solver
         10646 MiB given to the printing process from OS
         -1918 MiB allocation reported by mallinfo(arena+hblkhd)
        464009 MiB available memory on the node where the printing process lives
     GPU memory used/free/total (MiB): 31593 / 33375 / 64969
------------------
     ethr =  1.04E-04,  avg # of iterations = 14.0

     negative rho (up, down):  3.685E-02 0.000E+00

     total cpu time spent up to now is       73.0 secs

     total energy              =   -9095.72919969 Ry
     estimated scf accuracy    <       1.37672098 Ry
[tb_dev] Currently allocated     2.41E+01 Mbytes, locked:    0 /   6
[tb_pin] Currently allocated     0.00E+00 Mbytes, locked:    0 /   0

     iteration # 10     ecut=    90.00 Ry     beta= 0.20
     Davidson diagonalization with overlap

---- Real-time Memory Report at c_bands before calling an iterative solver
         10670 MiB given to the printing process from OS
         -1894 MiB allocation reported by mallinfo(arena+hblkhd)
        464058 MiB available memory on the node where the printing process lives
     GPU memory used/free/total (MiB): 31639 / 33329 / 64969
------------------
     ethr =  9.89E-05,  avg # of iterations =  4.0

     negative rho (up, down):  3.623E-02 0.000E+00

     total cpu time spent up to now is       76.8 secs

     total energy              =   -9095.70956606 Ry
     estimated scf accuracy    <       1.98451061 Ry
[tb_dev] Currently allocated     2.41E+01 Mbytes, locked:    0 /   6
[tb_pin] Currently allocated     0.00E+00 Mbytes, locked:    0 /   0

     iteration # 11     ecut=    90.00 Ry     beta= 0.20
     Davidson diagonalization with overlap

---- Real-time Memory Report at c_bands before calling an iterative solver
         10670 MiB given to the printing process from OS
         -1894 MiB allocation reported by mallinfo(arena+hblkhd)
        463854 MiB available memory on the node where the printing process lives
     GPU memory used/free/total (MiB): 31847 / 33121 / 64969
------------------
     ethr =  9.89E-05,  avg # of iterations =  1.0

     negative rho (up, down):  3.689E-02 0.000E+00

     total cpu time spent up to now is       80.2 secs

     total energy              =   -9095.88483951 Ry
     estimated scf accuracy    <       0.20224495 Ry
[tb_dev] Currently allocated     2.41E+01 Mbytes, locked:    0 /   6
[tb_pin] Currently allocated     0.00E+00 Mbytes, locked:    0 /   0

     iteration # 12     ecut=    90.00 Ry     beta= 0.20
     Davidson diagonalization with overlap

---- Real-time Memory Report at c_bands before calling an iterative solver
         10670 MiB given to the printing process from OS
         -1894 MiB allocation reported by mallinfo(arena+hblkhd)
        464044 MiB available memory on the node where the printing process lives
     GPU memory used/free/total (MiB): 31847 / 33121 / 64969
------------------
     ethr =  1.45E-05,  avg # of iterations = 19.0

     negative rho (up, down):  3.848E-02 0.000E+00

     total cpu time spent up to now is       85.0 secs

     total energy              =   -9095.86177513 Ry
     estimated scf accuracy    <       0.16629912 Ry
[tb_dev] Currently allocated     2.41E+01 Mbytes, locked:    0 /   6
[tb_pin] Currently allocated     0.00E+00 Mbytes, locked:    0 /   0

     iteration # 13     ecut=    90.00 Ry     beta= 0.20
     Davidson diagonalization with overlap

---- Real-time Memory Report at c_bands before calling an iterative solver
         10670 MiB given to the printing process from OS
         -1894 MiB allocation reported by mallinfo(arena+hblkhd)
        463854 MiB available memory on the node where the printing process lives
     GPU memory used/free/total (MiB): 31847 / 33121 / 64969
------------------
     ethr =  1.19E-05,  avg # of iterations =  2.0

     negative rho (up, down):  3.884E-02 0.000E+00

     total cpu time spent up to now is       88.7 secs

     total energy              =   -9095.87990479 Ry
     estimated scf accuracy    <       0.03433703 Ry
[tb_dev] Currently allocated     2.41E+01 Mbytes, locked:    0 /   6
[tb_pin] Currently allocated     0.00E+00 Mbytes, locked:    0 /   0

     iteration # 14     ecut=    90.00 Ry     beta= 0.20
     Davidson diagonalization with overlap

---- Real-time Memory Report at c_bands before calling an iterative solver
         10670 MiB given to the printing process from OS
         -1894 MiB allocation reported by mallinfo(arena+hblkhd)
        463853 MiB available memory on the node where the printing process lives
     GPU memory used/free/total (MiB): 31847 / 33121 / 64969
------------------
     c_bands:  4 eigenvalues not converged
     ethr =  2.47E-06,  avg # of iterations = 20.0

     negative rho (up, down):  3.933E-02 0.000E+00

     total cpu time spent up to now is       93.6 secs

     total energy              =   -9095.88364725 Ry
     estimated scf accuracy    <       0.01573920 Ry
[tb_dev] Currently allocated     2.41E+01 Mbytes, locked:    0 /   6
[tb_pin] Currently allocated     0.00E+00 Mbytes, locked:    0 /   0

     iteration # 15     ecut=    90.00 Ry     beta= 0.20
     Davidson diagonalization with overlap

---- Real-time Memory Report at c_bands before calling an iterative solver
         10670 MiB given to the printing process from OS
         -1894 MiB allocation reported by mallinfo(arena+hblkhd)
        463853 MiB available memory on the node where the printing process lives
     GPU memory used/free/total (MiB): 31847 / 33121 / 64969
------------------
     ethr =  1.13E-06,  avg # of iterations =  2.0

     negative rho (up, down):  3.997E-02 0.000E+00

     total cpu time spent up to now is       97.2 secs

     total energy              =   -9095.88369146 Ry
     estimated scf accuracy    <       0.01335986 Ry
[tb_dev] Currently allocated     2.41E+01 Mbytes, locked:    0 /   6
[tb_pin] Currently allocated     0.00E+00 Mbytes, locked:    0 /   0

     iteration # 16     ecut=    90.00 Ry     beta= 0.20
     Davidson diagonalization with overlap

---- Real-time Memory Report at c_bands before calling an iterative solver
         10670 MiB given to the printing process from OS
         -1894 MiB allocation reported by mallinfo(arena+hblkhd)
        463854 MiB available memory on the node where the printing process lives
     GPU memory used/free/total (MiB): 31847 / 33121 / 64969
------------------
     c_bands:  4 eigenvalues not converged
     ethr =  9.60E-07,  avg # of iterations = 20.0

     negative rho (up, down):  4.037E-02 0.000E+00

     total cpu time spent up to now is      101.4 secs

     total energy              =   -9095.88348822 Ry
     estimated scf accuracy    <       0.00605008 Ry
[tb_dev] Currently allocated     2.41E+01 Mbytes, locked:    0 /   6
[tb_pin] Currently allocated     0.00E+00 Mbytes, locked:    0 /   0

     iteration # 17     ecut=    90.00 Ry     beta= 0.20
     Davidson diagonalization with overlap

---- Real-time Memory Report at c_bands before calling an iterative solver
         10670 MiB given to the printing process from OS
         -1894 MiB allocation reported by mallinfo(arena+hblkhd)
        463854 MiB available memory on the node where the printing process lives
     GPU memory used/free/total (MiB): 31847 / 33121 / 64969
------------------
     c_bands:  1 eigenvalues not converged
     ethr =  4.35E-07,  avg # of iterations = 40.0

     negative rho (up, down):  4.050E-02 0.000E+00

     total cpu time spent up to now is      107.8 secs

     total energy              =   -9095.88395317 Ry
     estimated scf accuracy    <       0.00075958 Ry
[tb_dev] Currently allocated     2.41E+01 Mbytes, locked:    0 /   6
[tb_pin] Currently allocated     0.00E+00 Mbytes, locked:    0 /   0

     iteration # 18     ecut=    90.00 Ry     beta= 0.20
     Davidson diagonalization with overlap

---- Real-time Memory Report at c_bands before calling an iterative solver
         10670 MiB given to the printing process from OS
         -1894 MiB allocation reported by mallinfo(arena+hblkhd)
        463854 MiB available memory on the node where the printing process lives
     GPU memory used/free/total (MiB): 31847 / 33121 / 64969
------------------
     ethr =  5.46E-08,  avg # of iterations =  4.0

     negative rho (up, down):  4.062E-02 0.000E+00

     total cpu time spent up to now is      111.8 secs

     total energy              =   -9095.88401525 Ry
     estimated scf accuracy    <       0.00028144 Ry
[tb_dev] Currently allocated     2.41E+01 Mbytes, locked:    0 /   6
[tb_pin] Currently allocated     0.00E+00 Mbytes, locked:    0 /   0

     iteration # 19     ecut=    90.00 Ry     beta= 0.20
     Davidson diagonalization with overlap

---- Real-time Memory Report at c_bands before calling an iterative solver
         10670 MiB given to the printing process from OS
         -1894 MiB allocation reported by mallinfo(arena+hblkhd)
        463854 MiB available memory on the node where the printing process lives
     GPU memory used/free/total (MiB): 31847 / 33121 / 64969
------------------
     ethr =  2.02E-08,  avg # of iterations =  4.0

     negative rho (up, down):  4.077E-02 0.000E+00

     total cpu time spent up to now is      115.6 secs

     total energy              =   -9095.88404403 Ry
     estimated scf accuracy    <       0.00013656 Ry
[tb_dev] Currently allocated     2.41E+01 Mbytes, locked:    0 /   6
[tb_pin] Currently allocated     0.00E+00 Mbytes, locked:    0 /   0

     iteration # 20     ecut=    90.00 Ry     beta= 0.20
     Davidson diagonalization with overlap

---- Real-time Memory Report at c_bands before calling an iterative solver
         10670 MiB given to the printing process from OS
         -1894 MiB allocation reported by mallinfo(arena+hblkhd)
        463854 MiB available memory on the node where the printing process lives
     GPU memory used/free/total (MiB): 31847 / 33121 / 64969
------------------
     ethr =  9.81E-09,  avg # of iterations =  4.0

     negative rho (up, down):  4.087E-02 0.000E+00

     total cpu time spent up to now is      119.5 secs

     total energy              =   -9095.88406219 Ry
     estimated scf accuracy    <       0.00005595 Ry
[tb_dev] Currently allocated     2.41E+01 Mbytes, locked:    0 /   6
[tb_pin] Currently allocated     0.00E+00 Mbytes, locked:    0 /   0

     iteration # 21     ecut=    90.00 Ry     beta= 0.20
     Davidson diagonalization with overlap

---- Real-time Memory Report at c_bands before calling an iterative solver
         10670 MiB given to the printing process from OS
         -1894 MiB allocation reported by mallinfo(arena+hblkhd)
        463854 MiB available memory on the node where the printing process lives
     GPU memory used/free/total (MiB): 31847 / 33121 / 64969
------------------
     ethr =  4.02E-09,  avg # of iterations =  2.0

     negative rho (up, down):  4.091E-02 0.000E+00

     total cpu time spent up to now is      123.1 secs

     total energy              =   -9095.88406571 Ry
     estimated scf accuracy    <       0.00001798 Ry
[tb_dev] Currently allocated     2.41E+01 Mbytes, locked:    0 /   6
[tb_pin] Currently allocated     0.00E+00 Mbytes, locked:    0 /   0

     iteration # 22     ecut=    90.00 Ry     beta= 0.20
     Davidson diagonalization with overlap

---- Real-time Memory Report at c_bands before calling an iterative solver
         10670 MiB given to the printing process from OS
         -1894 MiB allocation reported by mallinfo(arena+hblkhd)
        463854 MiB available memory on the node where the printing process lives
     GPU memory used/free/total (MiB): 31847 / 33121 / 64969
------------------
     ethr =  1.29E-09,  avg # of iterations =  4.0

     negative rho (up, down):  4.095E-02 0.000E+00

     total cpu time spent up to now is      127.0 secs

     total energy              =   -9095.88406878 Ry
     estimated scf accuracy    <       0.00000930 Ry
[tb_dev] Currently allocated     2.41E+01 Mbytes, locked:    0 /   6
[tb_pin] Currently allocated     0.00E+00 Mbytes, locked:    0 /   0

     iteration # 23     ecut=    90.00 Ry     beta= 0.20
     Davidson diagonalization with overlap

---- Real-time Memory Report at c_bands before calling an iterative solver
         10670 MiB given to the printing process from OS
         -1894 MiB allocation reported by mallinfo(arena+hblkhd)
        463854 MiB available memory on the node where the printing process lives
     GPU memory used/free/total (MiB): 31847 / 33121 / 64969
------------------
     ethr =  6.68E-10,  avg # of iterations =  2.0

     negative rho (up, down):  4.098E-02 0.000E+00

     total cpu time spent up to now is      130.6 secs

     total energy              =   -9095.88406974 Ry
     estimated scf accuracy    <       0.00000377 Ry
[tb_dev] Currently allocated     2.41E+01 Mbytes, locked:    0 /   6
[tb_pin] Currently allocated     0.00E+00 Mbytes, locked:    0 /   0

     iteration # 24     ecut=    90.00 Ry     beta= 0.20
     Davidson diagonalization with overlap

---- Real-time Memory Report at c_bands before calling an iterative solver
         10670 MiB given to the printing process from OS
         -1894 MiB allocation reported by mallinfo(arena+hblkhd)
        463854 MiB available memory on the node where the printing process lives
     GPU memory used/free/total (MiB): 31847 / 33121 / 64969
------------------
     ethr =  2.71E-10,  avg # of iterations =  2.0

     negative rho (up, down):  4.099E-02 0.000E+00

     total cpu time spent up to now is      134.5 secs

     total energy              =   -9095.88407034 Ry
     estimated scf accuracy    <       0.00000129 Ry
[tb_dev] Currently allocated     2.41E+01 Mbytes, locked:    0 /   6
[tb_pin] Currently allocated     0.00E+00 Mbytes, locked:    0 /   0

     iteration # 25     ecut=    90.00 Ry     beta= 0.20
     Davidson diagonalization with overlap

---- Real-time Memory Report at c_bands before calling an iterative solver
         10670 MiB given to the printing process from OS
         -1894 MiB allocation reported by mallinfo(arena+hblkhd)
        463854 MiB available memory on the node where the printing process lives
     GPU memory used/free/total (MiB): 31847 / 33121 / 64969
------------------
     ethr =  9.29E-11,  avg # of iterations =  2.0

     negative rho (up, down):  4.101E-02 0.000E+00

     total cpu time spent up to now is      138.2 secs

     total energy              =   -9095.88407046 Ry
     estimated scf accuracy    <       0.00000057 Ry
[tb_dev] Currently allocated     2.41E+01 Mbytes, locked:    0 /   6
[tb_pin] Currently allocated     0.00E+00 Mbytes, locked:    0 /   0

     iteration # 26     ecut=    90.00 Ry     beta= 0.20
     Davidson diagonalization with overlap

---- Real-time Memory Report at c_bands before calling an iterative solver
         10670 MiB given to the printing process from OS
         -1894 MiB allocation reported by mallinfo(arena+hblkhd)
        463854 MiB available memory on the node where the printing process lives
     GPU memory used/free/total (MiB): 31847 / 33121 / 64969
------------------
     ethr =  4.08E-11,  avg # of iterations =  4.0

     negative rho (up, down):  4.102E-02 0.000E+00

     total cpu time spent up to now is      142.0 secs

     total energy              =   -9095.88407055 Ry
     estimated scf accuracy    <       0.00000027 Ry
[tb_dev] Currently allocated     2.41E+01 Mbytes, locked:    0 /   6
[tb_pin] Currently allocated     0.00E+00 Mbytes, locked:    0 /   0

     iteration # 27     ecut=    90.00 Ry     beta= 0.20
     Davidson diagonalization with overlap

---- Real-time Memory Report at c_bands before calling an iterative solver
         10670 MiB given to the printing process from OS
         -1894 MiB allocation reported by mallinfo(arena+hblkhd)
        463854 MiB available memory on the node where the printing process lives
     GPU memory used/free/total (MiB): 31847 / 33121 / 64969
------------------
     ethr =  1.97E-11,  avg # of iterations =  4.0

     negative rho (up, down):  4.103E-02 0.000E+00

     total cpu time spent up to now is      145.8 secs

     total energy              =   -9095.88407061 Ry
     estimated scf accuracy    <       0.00000012 Ry
[tb_dev] Currently allocated     2.41E+01 Mbytes, locked:    0 /   6
[tb_pin] Currently allocated     0.00E+00 Mbytes, locked:    0 /   0

     iteration # 28     ecut=    90.00 Ry     beta= 0.20
     Davidson diagonalization with overlap

---- Real-time Memory Report at c_bands before calling an iterative solver
         10670 MiB given to the printing process from OS
         -1894 MiB allocation reported by mallinfo(arena+hblkhd)
        463854 MiB available memory on the node where the printing process lives
     GPU memory used/free/total (MiB): 31847 / 33121 / 64969
------------------
     ethr =  8.81E-12,  avg # of iterations =  4.0

     negative rho (up, down):  4.105E-02 0.000E+00

     total cpu time spent up to now is      149.5 secs

     End of self-consistent calculation

          k = 0.0000 0.0000 0.0000 (371318 PWs)   bands (ev):

   -72.2003 -72.0276 -72.0161 -71.9550 -71.9393 -71.9351 -71.9315 -71.8735
   -71.8255 -71.8245 -71.8235 -71.8063 -71.7568 -71.7480 -71.7269 -71.7230
   -71.7193 -71.6574 -71.6524 -71.6466 -71.6408 -71.6355 -71.6038 -71.5524
   -46.0691 -45.5439 -45.2768 -45.2727 -45.1930 -45.1804 -45.1478 -45.1127
   -45.0397 -44.9814 -44.9399 -44.9170 -44.8971 -44.8311 -44.8247 -44.7728
   -44.7110 -44.7089 -44.7064 -44.6599 -44.6515 -44.6344 -44.6235 -44.6173
   -44.6120 -44.6078 -44.6075 -44.5957 -44.5898 -44.5824 -44.5813 -44.5802
   -44.5751 -44.5715 -44.5710 -44.5583 -44.5576 -44.5566 -44.5546 -44.5420
   -44.5411 -44.5362 -44.5353 -44.5351 -44.5348 -44.5233 -44.5073 -44.4978
   -44.4857 -44.4560 -44.4457 -44.4390 -44.4340 -44.4049 -44.4007 -44.3642
[...]
     atom  143 type  1   force =     0.00001113   -0.00000035   -0.00001822
     atom  144 type  1   force =    -0.00001776    0.00000303   -0.00000709
     atom  145 type  1   force =     0.00001483   -0.00002490   -0.00001376
     atom  146 type  1   force =     0.00002057    0.00001850   -0.00001497
     atom  147 type  1   force =    -0.00000503   -0.00000512   -0.00001613
     atom  148 type  1   force =    -0.00000775    0.00000513   -0.00001453
     atom  149 type  1   force =     0.00000097    0.00000782    0.00001255
     atom  150 type  4   force =     0.00000137   -0.00001516   -0.00002380
     atom  151 type  2   force =    -0.00000119    0.00000207    0.00000073
     atom  152 type  2   force =     0.00000164   -0.00000168   -0.00000380
     atom  153 type  2   force =     0.00000285    0.00000414   -0.00000729
     atom  154 type  2   force =     0.00000286    0.00000865   -0.00000496
     atom  155 type  2   force =     0.00000224    0.00000053   -0.00000761
     atom  156 type  2   force =     0.00000127    0.00000495   -0.00000810
     atom  157 type  2   force =    -0.00000537    0.00000017   -0.00000955
     atom  158 type  2   force =     0.00000369    0.00000120   -0.00000383
     atom  159 type  2   force =     0.00001291    0.00000478   -0.00001049
     atom  160 type  2   force =    -0.00000669    0.00000948   -0.00000565
     atom  161 type  2   force =    -0.00000115   -0.00000225   -0.00000775
     atom  162 type  2   force =     0.00001182    0.00000374   -0.00000972
     atom  163 type  2   force =    -0.00000338   -0.00000476   -0.00000624
     atom  164 type  2   force =     0.00000392   -0.00000851   -0.00000928
     atom  165 type  3   force =    -0.00000732   -0.00002739   -0.00000937
     atom  166 type  3   force =    -0.00001346    0.00001160   -0.00001657
     atom  167 type  1   force =     0.00001584    0.00000652   -0.00000923
     atom  168 type  1   force =    -0.00000154   -0.00001601   -0.00000693
     atom  169 type  1   force =     0.00001305    0.00000500   -0.00001028
     atom  170 type  1   force =    -0.00000609    0.00000641   -0.00000588
     atom  171 type  1   force =    -0.00001209   -0.00000337   -0.00001232
     atom  172 type  1   force =     0.00000386    0.00000566   -0.00003309
     atom  173 type  1   force =     0.00000204   -0.00000561   -0.00000853
     atom  174 type  1   force =    -0.00000833   -0.00000562   -0.00002090
     atom  175 type  4   force =     0.00000340   -0.00000769   -0.00001370
     atom  176 type  2   force =    -0.00000204   -0.00000229   -0.00001420
     atom  177 type  2   force =     0.00000601   -0.00000090   -0.00001141
     atom  178 type  2   force =    -0.00000089    0.00000320   -0.00000710
     atom  179 type  2   force =     0.00000389   -0.00000079   -0.00000466
     atom  180 type  2   force =     0.00000056    0.00000228   -0.00000568
     atom  181 type  2   force =    -0.00000333    0.00000171   -0.00000215
     atom  182 type  2   force =    -0.00000503   -0.00000393   -0.00000470
     atom  183 type  2   force =     0.00000668   -0.00001668    0.00000129
     atom  184 type  2   force =     0.00000277    0.00001074   -0.00000813
     atom  185 type  2   force =    -0.00000707    0.00000926   -0.00000734
     atom  186 type  2   force =     0.00000696   -0.00000262   -0.00000576
     atom  187 type  2   force =     0.00001226    0.00000503   -0.00000510
     atom  188 type  2   force =     0.00000547    0.00000495   -0.00000536
     atom  189 type  2   force =     0.00000104   -0.00000132   -0.00000315
     atom  190 type  3   force =    -0.00000797    0.00000588   -0.00002520
     atom  191 type  3   force =     0.00000239   -0.00000117    0.00000773
     atom  192 type  1   force =     0.00000455    0.00000694   -0.00002714
     atom  193 type  1   force =     0.00000202   -0.00000328   -0.00000675
     atom  194 type  1   force =    -0.00004036    0.00000656   -0.00000684
     atom  195 type  1   force =     0.00001752   -0.00002599   -0.00000946
     atom  196 type  1   force =     0.00002149    0.00003505   -0.00000962
     atom  197 type  1   force =    -0.00000619    0.00000163   -0.00002789
     atom  198 type  1   force =     0.00000756   -0.00002256   -0.00002396
     atom  199 type  1   force =     0.00000590    0.00000641   -0.00000214
     atom  200 type  4   force =     0.00001110    0.00000106   -0.00001535
     atom  201 type  2   force =    -0.00000147    0.00000260   -0.00000163
     atom  202 type  2   force =     0.00000652   -0.00000399   -0.00000636
     atom  203 type  2   force =     0.00000292   -0.00000179   -0.00000097
     atom  204 type  2   force =    -0.00000587   -0.00000076   -0.00001531
     atom  205 type  2   force =    -0.00000481   -0.00000068   -0.00001038
     atom  206 type  2   force =     0.00000557   -0.00000428   -0.00000895
     atom  207 type  2   force =    -0.00000594   -0.00000149   -0.00000872
     atom  208 type  2   force =     0.00000168   -0.00001110   -0.00001039
     atom  209 type  2   force =     0.00000749    0.00000446   -0.00001042
     atom  210 type  2   force =    -0.00000479    0.00000345   -0.00000120
     atom  211 type  2   force =    -0.00000929   -0.00001249   -0.00000270
     atom  212 type  2   force =     0.00000462    0.00000552   -0.00000411
     atom  213 type  2   force =     0.00000248   -0.00000214   -0.00000676
     atom  214 type  2   force =    -0.00000164    0.00000124   -0.00000681
     atom  215 type  3   force =     0.00000528    0.00002452   -0.00001006
     atom  216 type  3   force =    -0.00000300   -0.00001345    0.00000816
     atom  217 type  1   force =     0.00000884   -0.00000482   -0.00001341
     atom  218 type  1   force =     0.00000189    0.00000407   -0.00001602
     atom  219 type  1   force =    -0.00001235   -0.00001017   -0.00001001
     atom  220 type  1   force =    -0.00000194   -0.00000807   -0.00000875
     atom  221 type  1   force =     0.00000411    0.00000403   -0.00000563
     atom  222 type  1   force =     0.00000165   -0.00002156   -0.00000542
     atom  223 type  1   force =    -0.00000386    0.00001942   -0.00001405
     atom  224 type  1   force =    -0.00000297   -0.00000204   -0.00000010
     atom  225 type  4   force =    -0.00000084    0.00000119   -0.00002309
     atom  226 type  2   force =    -0.00000289   -0.00000153   -0.00000789
     atom  227 type  2   force =    -0.00000004    0.00000193   -0.00001170
     atom  228 type  2   force =    -0.00000111    0.00000209   -0.00000974
     atom  229 type  2   force =     0.00000023    0.00000183   -0.00000281
     atom  230 type  2   force =    -0.00000012    0.00000016   -0.00000159
     atom  231 type  2   force =     0.00000564   -0.00000398    0.00000353
     atom  232 type  2   force =    -0.00001077    0.00000412   -0.00000220
     atom  233 type  2   force =     0.00000202    0.00000043   -0.00000479
     atom  234 type  2   force =    -0.00000014    0.00000703   -0.00000314
     atom  235 type  2   force =    -0.00000484   -0.00000343   -0.00000888
     atom  236 type  2   force =    -0.00000479   -0.00001375   -0.00000300
     atom  237 type  2   force =     0.00001484   -0.00000072   -0.00000996
     atom  238 type  2   force =     0.00000888   -0.00000804   -0.00000399
     atom  239 type  2   force =    -0.00000408   -0.00000981   -0.00000581
     atom  240 type  3   force =    -0.00001848    0.00001066    0.00000667
     atom  241 type  3   force =    -0.00000530    0.00000339    0.00001366
     atom  242 type  1   force =     0.00002534   -0.00000361    0.00000663
     atom  243 type  1   force =    -0.00000742   -0.00000047   -0.00003369
     atom  244 type  1   force =    -0.00000217   -0.00000618   -0.00000810
     atom  245 type  1   force =    -0.00000676   -0.00000866   -0.00000345
     atom  246 type  1   force =     0.00000437    0.00000650   -0.00000775
     atom  247 type  1   force =     0.00001279   -0.00001197   -0.00001328
     atom  248 type  1   force =     0.00000138    0.00001562   -0.00001230
     atom  249 type  1   force =     0.00000161   -0.00000636   -0.00001514
     atom  250 type  4   force =    -0.00000105    0.00000957   -0.00003677
     atom  251 type  2   force =    -0.00000142    0.00000139   -0.00000540
     atom  252 type  2   force =    -0.00000302    0.00000030   -0.00000002
     atom  253 type  2   force =    -0.00000084    0.00000373   -0.00000495
     atom  254 type  2   force =     0.00000030   -0.00000121   -0.00001358
     atom  255 type  2   force =    -0.00000618    0.00000068   -0.00001559
     atom  256 type  2   force =     0.00000158   -0.00000443   -0.00001270
     atom  257 type  2   force =    -0.00001145    0.00000897   -0.00000737
     atom  258 type  2   force =     0.00000317   -0.00000770   -0.00001047
     atom  259 type  2   force =     0.00000312    0.00001042   -0.00000598
     atom  260 type  2   force =    -0.00000436    0.00000106   -0.00000672
     atom  261 type  2   force =    -0.00000235   -0.00001336   -0.00000659
     atom  262 type  2   force =     0.00000763    0.00000032   -0.00000665
     atom  263 type  2   force =    -0.00000219    0.00000407   -0.00000511
     atom  264 type  2   force =    -0.00000064    0.00000033   -0.00000694
     atom  265 type  3   force =    -0.00002937    0.00003003   -0.00002423
     atom  266 type  3   force =     0.00001310    0.00000527    0.00004589
     atom  267 type  1   force =     0.00000813   -0.00000160   -0.00001324
     atom  268 type  1   force =    -0.00000806    0.00000708   -0.00000331
     atom  269 type  1   force =    -0.00000114   -0.00000193   -0.00000448
     atom  270 type  1   force =    -0.00000400    0.00000379    0.00000524
     atom  271 type  1   force =    -0.00000931   -0.00000564    0.00000432
     atom  272 type  1   force =    -0.00000445    0.00000505   -0.00001977
     atom  273 type  1   force =    -0.00000523   -0.00000418   -0.00001939
     atom  274 type  1   force =     0.00000977   -0.00000394   -0.00002415
     atom  275 type  4   force =    -0.00000026    0.00000233   -0.00000451
     atom  276 type  2   force =    -0.00000219   -0.00000555   -0.00000900
     atom  277 type  2   force =    -0.00000007    0.00000149   -0.00001207
     atom  278 type  2   force =     0.00000328   -0.00000119   -0.00000530
     atom  279 type  2   force =     0.00000091    0.00000141   -0.00001142
     atom  280 type  2   force =    -0.00000442   -0.00000112    0.00000260
     atom  281 type  2   force =     0.00000265   -0.00000192    0.00000185
     atom  282 type  2   force =    -0.00000703   -0.00000064   -0.00000735
     atom  283 type  2   force =    -0.00000062   -0.00000827   -0.00001021
     atom  284 type  2   force =     0.00000599    0.00000247   -0.00000685
     atom  285 type  2   force =    -0.00001033    0.00000781    0.00000089
     atom  286 type  2   force =     0.00000021   -0.00000173   -0.00000319
     atom  287 type  2   force =     0.00000164    0.00000458   -0.00000687
     atom  288 type  2   force =    -0.00000054   -0.00000059   -0.00000140
     atom  289 type  2   force =    -0.00000607   -0.00000484   -0.00000574
     atom  290 type  3   force =    -0.00001620   -0.00002161    0.00002088
     atom  291 type  3   force =    -0.00000083   -0.00001640   -0.00002223
     atom  292 type  1   force =     0.00001514    0.00000539   -0.00000330
     atom  293 type  1   force =    -0.00000977    0.00000134   -0.00003066
     atom  294 type  1   force =     0.00000337   -0.00000079   -0.00000909
     atom  295 type  1   force =    -0.00000875    0.00000483   -0.00001211
     atom  296 type  1   force =    -0.00000160   -0.00000530   -0.00001310
     atom  297 type  1   force =    -0.00000768    0.00000488   -0.00001350
     atom  298 type  1   force =    -0.00000674    0.00002219   -0.00000669
     atom  299 type  1   force =    -0.00000115   -0.00000169   -0.00000684
     atom  300 type  4   force =    -0.00000620    0.00000929   -0.00002011

     Total force =     0.964637     Total SCF correction =     0.000307


     Computing stress (Cartesian axis) and pressure


     negative rho (up, down):  4.105E-02 0.000E+00
          total   stress  (Ry/bohr**3)                   (kbar)     P=        3.63
   0.00004011  -0.00000408   0.00000216            5.90       -0.60        0.32
  -0.00000408   0.00006465  -0.00000014           -0.60        9.51       -0.02
   0.00000216  -0.00000014  -0.00003073            0.32       -0.02       -4.52

     kinetic stress (kbar)   5331.96     -1.77     -1.13
                               -1.77   5336.60      0.01
                               -1.13      0.01   5324.18

     local   stress (kbar)-643441.76   -167.86     21.54
                             -167.86-643378.05    -68.81
                               21.54    -68.81 637103.92

     nonloc. stress (kbar)    958.34      0.27      0.48
                                0.27    957.54     -0.25
                                0.48     -0.25    954.45

     hartree stress (kbar) 322345.15     68.82     -6.22
                               68.82 322314.31     26.07
                               -6.22     26.07-316488.66

     exc-cor stress (kbar)  -1263.65      0.12     -0.06
                                0.12  -1263.70      0.10
                               -0.06      0.10  -1265.91

     corecor stress (kbar)   -292.86      0.00      0.01
                                0.00   -292.88      0.00
                                0.01      0.00   -292.72

     ewald   stress (kbar) 316368.73     99.81    -14.29
                               99.81 316335.68     42.85
                              -14.29     42.85-325339.78

     hubbard stress (kbar)      0.00      0.00      0.00
                                0.00      0.00      0.00
                                0.00      0.00      0.00

     DFT-D   stress (kbar)      0.00      0.00      0.00
                                0.00      0.00      0.00
                                0.00      0.00      0.00

     XDM     stress (kbar)      0.00      0.00      0.00
                                0.00      0.00      0.00
                                0.00      0.00      0.00

     dft-nl  stress (kbar)      0.00      0.00      0.00
                                0.00      0.00      0.00
                                0.00      0.00      0.00

     TS-vdW  stress (kbar)      0.00      0.00      0.00
                                0.00      0.00      0.00
                                0.00      0.00      0.00

     MDB     stress (kbar)      0.00      0.00      0.00
                                0.00      0.00      0.00
                                0.00      0.00      0.00

     3D-RISM stress (kbar)      0.00      0.00      0.00
                                0.00      0.00      0.00
                                0.00      0.00      0.00


     Writing all to output data dir ./tmp/pwscf.save/
 
     init_run     :     29.42s CPU     34.73s WALL (       1 calls)
     electrons    :    107.82s CPU    114.51s WALL (       1 calls)
     forces       :      3.11s CPU      3.35s WALL (       1 calls)
     stress       :     81.03s CPU     83.48s WALL (       1 calls)

     Called by init_run:
     wfcinit      :      3.51s CPU      5.93s WALL (       1 calls)
                                        5.93s GPU  (       1 calls)
     wfcinit:atom :      0.01s CPU      0.01s WALL (       1 calls)
                                        0.01s GPU  (       1 calls)
     wfcinit:wfcr :      1.25s CPU      2.94s WALL (       1 calls)
                                        2.94s GPU  (       1 calls)
     potinit      :     16.27s CPU     16.55s WALL (       1 calls)
     hinit0       :      7.30s CPU      7.53s WALL (       1 calls)

     Called by electrons:
     c_bands      :     67.77s CPU     69.47s WALL (      28 calls)
     sum_band     :     15.26s CPU     15.70s WALL (      28 calls)
     v_of_rho     :      3.13s CPU      3.28s WALL (      29 calls)
     v_h          :      1.70s CPU      1.78s WALL (      29 calls)
     v_xc         :      1.56s CPU      1.63s WALL (      31 calls)
     newd         :      2.37s CPU      4.68s WALL (      29 calls)
                                        4.68s GPU  (      29 calls)
     PAW_pot      :      3.14s CPU      3.15s WALL (      29 calls)
     mix_rho      :      7.70s CPU      7.98s WALL (      28 calls)

     Called by c_bands:
     init_us_2    :      0.43s CPU      0.60s WALL (      57 calls)
     init_us_2:gp :      0.43s CPU      0.60s WALL (      57 calls)
     regterg      :     58.91s CPU     60.42s WALL (      29 calls)

     Called by sum_band:
     sum_band:wei :      0.01s CPU      0.01s WALL (      28 calls)
                                        0.01s GPU  (      28 calls)
     sum_band:loo :     11.99s CPU     12.37s WALL (      28 calls)
                                       12.37s GPU  (      28 calls)
     sum_band:buf :      1.82s CPU      1.83s WALL (      28 calls)
                                        1.83s GPU  (      28 calls)
     sum_band:ini :      0.21s CPU      0.44s WALL (      28 calls)
                                        0.44s GPU  (      28 calls)
     sum_band:cal :      1.99s CPU      2.05s WALL (      28 calls)
                                        2.05s GPU  (      28 calls)
     sum_band:bec :      0.19s CPU      0.19s WALL (      28 calls)
                                        0.19s GPU  (      28 calls)
     addusdens    :      2.00s CPU      2.05s WALL (      28 calls)
                                        2.05s GPU  (      28 calls)
     addusd:skk   :      0.42s CPU      0.43s WALL (     112 calls)
                                        0.42s GPU  (     112 calls)

     Called by *egterg:
     rdiaghg      :      5.53s CPU      6.18s WALL (     221 calls)
                                        6.17s GPU  (     221 calls)
     regterg:over :      3.55s CPU      3.62s WALL (     192 calls)
     regterg:upda :      1.91s CPU      1.97s WALL (     192 calls)
     regterg:last :      3.94s CPU      3.96s WALL (      62 calls)
     h_psi        :     37.98s CPU     40.20s WALL (     222 calls)
                                       40.20s GPU  (     222 calls)
     s_psi        :      1.00s CPU      4.72s WALL (     222 calls)
                                        4.58s GPU  (     222 calls)
     g_psi        :      0.00s CPU      0.19s WALL (     192 calls)
                                        0.19s GPU  (     192 calls)

     Called by h_psi:
     h_psi:calbec :      5.58s CPU      5.85s WALL (     222 calls)
                                        5.85s GPU  (     222 calls)
     vloc_psi     :     28.09s CPU     29.38s WALL (     222 calls)
                                       29.38s GPU  (     222 calls)
     add_vuspsi   :      0.44s CPU      4.76s WALL (     222 calls)
                                        4.76s GPU  (     222 calls)

     General routines
     calbec       :      7.96s CPU      8.46s WALL (     255 calls)
     fft          :      5.58s CPU      7.33s WALL (     337 calls)
                                        0.76s GPU  (     308 calls)
     ffts         :      2.85s CPU      3.36s WALL (      57 calls)
                                        0.04s GPU  (      28 calls)
     fftw         :     17.05s CPU     28.64s WALL (   15822 calls)
                                       28.43s GPU  (   15822 calls)
     interpolate  :      8.98s CPU     11.11s WALL (      29 calls)
 
     Parallel routines

     PAW routines
     PAW_pot      :      3.14s CPU      3.15s WALL (      29 calls)
 
     PWSCF        :   3m43.75s CPU   4m 3.60s WALL

 
   This run was terminated on:  14:33:50  30Dec2023            

=------------------------------------------------------------------------------=
   JOB DONE.
=------------------------------------------------------------------------------=
