
     Program PWSCF v.7.2 starts on 30Dec2023 at 14:16:49 

     This program is part of the open-source Quantum ESPRESSO suite
     for quantum simulation of materials; please cite
         "P. Giannozzi et al., J. Phys.:Condens. Matter 21 395502 (2009);
         "P. Giannozzi et al., J. Phys.:Condens. Matter 29 465901 (2017);
         "P. Giannozzi et al., J. Chem. Phys. 152 154105 (2020);
          URL http://www.quantum-espresso.org", 
     in publications or presentations arising from this work. More details at
     http://www.quantum-espresso.org/quote

     Parallel version (MPI & OpenMP), running on       4 processor cores
     Number of MPI processes:                 4
     Threads/MPI process:                     1

     MPI processes distributed on     1 nodes
     503981 MiB available memory on the printing compute node when the environment starts
 
     Reading input from input_0013.inp

     Current dimensions of program PWSCF are:
     Max number of different atomic species (ntypx) = 10
     Max number of k-points (npk) =  40000
     Max angular momentum in pseudopotentials (lmaxx) =  4
     file O.pbe-n-kjpaw_psl.0.1.UPF: wavefunction(s)  2P renormalized

     gamma-point specific algorithms are used
 
     R & G space division:  proc/nbgrp/npool/nimage =       4
     Subspace diagonalization in iterative solution of the eigenvalue problem:
     a serial algorithm will be used

 
     Parallelization info
     --------------------
     sticks:   dense  smooth     PW     G-vecs:    dense   smooth      PW
     Min        6485    4324   1079              2728975  1485363  185656
     Max        6486    4326   1080              2728990  1485382  185664
     Sum       25943   17301   4319             10915929  5941483  742635
 
     Using Slab Decomposition
 


     bravais-lattice index     =            0
     lattice parameter (alat)  =      32.3352  a.u.
     unit-cell volume          =   51510.8153 (a.u.)^3
     number of atoms/cell      =          300
     number of atomic types    =            4
     number of electrons       =      1392.00
     number of Kohn-Sham states=          835
     kinetic-energy cutoff     =      90.0000  Ry
     charge density cutoff     =     540.0000  Ry
     scf convergence threshold =      1.0E-07
     mixing beta               =       0.2000
     number of iterations used =            8  plain     mixing
     Exchange-correlation= SLA  PW   PBX  PBC
                           (   1   4   3   4   0   0   0)

     GPU acceleration is ACTIVE.
     GPU-aware MPI enabled


     GPU used by master process:

        Device Number: 0
        Device name: NVIDIA PG506-243
        Compute capability : 80
        Ratio of single to double precision performance  : 2
        Memory Clock Rate (KHz): 1593000
        Memory Bus Width (bits): 4096
        Peak Memory Bandwidth (GB/s): ******

     celldm(1)=  32.335181  celldm(2)=   0.000000  celldm(3)=   0.000000
     celldm(4)=   0.000000  celldm(5)=   0.000000  celldm(6)=   0.000000

     crystal axes: (cart. coord. in units of alat)
               a(1) = (   1.000000   0.000000   0.000000 )  
               a(2) = (  -0.333333   0.577350   0.000000 )  
               a(3) = (   0.000000  -0.000000   2.638962 )  

     reciprocal axes: (cart. coord. in units 2 pi/alat)
               b(1) = (  1.000000  0.577350  0.000000 )  
               b(2) = ( -0.000000  1.732051  0.000000 )  
               b(3) = (  0.000000 -0.000000  0.378937 )  


     PseudoPot. # 1 for N  read from file:
     /leonardo_scratch/large/userexternal/uraucci0/Li_Cr/PPS/N.pbe-n-radius_5.UPF
     MD5 check sum: 16739722b17309cd8fe442a2ace49922
     Pseudo is Ultrasoft + core correction, Zval =  5.0
     Generated using "atomic" code by A. Dal Corso  v.5.1
     Using radial grid of 1085 points,  4 beta functions with: 
                l(1) =   0
                l(2) =   0
                l(3) =   1
                l(4) =   1
     Q(r) pseudized with 0 coefficients 


     PseudoPot. # 2 for Li read from file:
     /leonardo_scratch/large/userexternal/uraucci0/Li_Cr/PPS/li_pbe_v1.4.uspp.F.UPF
     MD5 check sum: e912e257baa3777c20ea3d68f190483c
     Pseudo is Ultrasoft, Zval =  3.0
     Generated by new atomic code, or converted to UPF format
     Using radial grid of  751 points,  5 beta functions with: 
                l(1) =   0
                l(2) =   0
                l(3) =   0
                l(4) =   1
                l(5) =   1
     Q(r) pseudized with 10 coefficients,  rinner =    1.150   1.150   1.150


     PseudoPot. # 3 for Cr read from file:
     /leonardo_scratch/large/userexternal/uraucci0/Li_Cr/PPS/cr_pbe_v1.5.uspp.F.UPF
     MD5 check sum: 0d52af634a40206e4dee301ad30da4bf
     Pseudo is Ultrasoft + core correction, Zval = 14.0
     Generated by new atomic code, or converted to UPF format
     Using radial grid of  857 points,  6 beta functions with: 
                l(1) =   0
                l(2) =   0
                l(3) =   1
                l(4) =   1
                l(5) =   2
                l(6) =   2
     Q(r) pseudized with  8 coefficients,  rinner =    0.950   0.950   0.950
                                                       0.950   0.950

     PseudoPot. # 4 for O  read from file:
     /leonardo_scratch/large/userexternal/uraucci0/Li_Cr/PPS/O.pbe-n-kjpaw_psl.0.1.UPF
     MD5 check sum: 0234752ac141de4415c5fc33072bef88
     Pseudo is Projector augmented-wave + core cor, Zval =  6.0
     Generated using "atomic" code by A. Dal Corso  v.5.0.99 svn rev. 10869
     Shape of augmentation charge: BESSEL
     Using radial grid of 1095 points,  4 beta functions with: 
                l(1) =   0
                l(2) =   0
                l(3) =   1
                l(4) =   1
     Q(r) pseudized with 0 coefficients 


     atomic species   valence    mass     pseudopotential
        N              5.00    14.00674     N ( 1.00)
        Li             3.00     6.94100     Li( 1.00)
        Cr            14.00    51.99610     Cr( 1.00)
        O              6.00    15.99940     O ( 1.00)

     No symmetry found


                                    s                        frac. trans.

      isym =  1     identity                                     

 cryst.   s( 1) = (     1          0          0      )
                  (     0          1          0      )
                  (     0          0          1      )

 cart.    s( 1) = (  1.0000000  0.0000000  0.0000000 )
                  (  0.0000000  1.0000000  0.0000000 )
                  (  0.0000000  0.0000000  1.0000000 )


   Cartesian axes

     site n.     atom                  positions (alat units)
         1           Li  tau(   1) = (   0.2593273   0.0873080   0.8766270  )
         2           Li  tau(   2) = (   0.1280588   0.1809300   0.8766270  )
         3           Li  tau(   3) = (   0.1126144   0.0204373   0.8766270  )
         4           Li  tau(   4) = (  -0.0834157   0.2009457   1.2863332  )
         5           Li  tau(   5) = (   0.0371296   0.1147394   1.2796241  )
         6           Li  tau(   6) = (   0.0586393   0.2742668   1.2787825  )
         7           Li  tau(   7) = (   0.0669942   0.0904568   1.0336250  )
         8           Li  tau(   8) = (   0.2214985   0.0127904   1.0336250  )
         9           Li  tau(   9) = (   0.2115073   0.1854282   1.0336250  )
        10           Li  tau(  10) = (   0.0864465   0.1985858   1.1385397  )
        11           Li  tau(  11) = (  -0.0612341   0.2624791   1.1217202  )
        12           Li  tau(  12) = (  -0.0400897   0.0933152   1.1243793  )
        13           Li  tau(  13) = (   0.0000000   0.0000000   0.9626942  )
        14           Li  tau(  14) = (  -0.3398069   0.5762764   1.1886010  )
        15           Cr  tau(  15) = (   0.1635225   0.0984855   1.2042517  )
        16           Cr  tau(  16) = (  -0.0000000   0.1924500   0.9478909  )
        17           N   tau(  17) = (   0.2597177   0.0780227   1.2349979  )
        18           N   tau(  18) = (   0.1715460   0.0937927   1.1005000  )
        19           N   tau(  19) = (  -0.0969339   0.1982778   0.9168466  )
        20           N   tau(  20) = (   0.0434200   0.1055885   0.9168466  )
        21           N   tau(  21) = (   0.0535141   0.2734837   0.9168466  )
        22           N   tau(  22) = (   0.0989735   0.0219006   1.2441557  )
        23           N   tau(  23) = (   0.1377894   0.1896308   1.2370142  )
        24           N   tau(  24) = (  -0.0000000   0.1924500   1.0497374  )
        25           O   tau(  25) = (  -0.3264126   0.5746518   1.0737511  )
        26           Li  tau(  26) = (   0.2573742   0.0896386   1.3689757  )
        27           Li  tau(  27) = (   0.1296742   0.1835055   1.3678010  )
        28           Li  tau(  28) = (   0.1089817   0.0187959   1.3668426  )
        29           Li  tau(  29) = (  -0.0939592   0.2081200   1.7630838  )
        30           Li  tau(  30) = (   0.0361638   0.1150865   1.8138873  )
        31           Li  tau(  31) = (   0.0540485   0.2769194   1.7661287  )
        32           Li  tau(  32) = (   0.0591139   0.0920160   1.5530966  )
        33           Li  tau(  33) = (   0.1865614   0.0327463   1.5235368  )
        34           Li  tau(  34) = (   0.2093233   0.1894069   1.5223095  )
        35           Li  tau(  35) = (   0.1025320   0.1990633   1.6240391  )
        36           Li  tau(  36) = (  -0.0443847   0.2745116   1.6165060  )
        37           Li  tau(  37) = (  -0.0509416   0.1080618   1.6243956  )
        38           Li  tau(  38) = (   0.0173665  -0.0064199   1.4608112  )
        39           Li  tau(  39) = (   0.0150247   0.0276641   1.7077804  )
        40           Cr  tau(  40) = (   0.1670833   0.1101517   1.7241616  )
        41           Cr  tau(  41) = (   0.0001194   0.1869109   1.4381942  )
        42           N   tau(  42) = (   0.2647583   0.1121440   1.7522137  )
        43           N   tau(  43) = (   0.1718744   0.1022737   1.6181832  )
        44           N   tau(  44) = (  -0.0973734   0.1945855   1.4057882  )
        45           N   tau(  45) = (   0.0404049   0.0990232   1.4096454  )
        46           N   tau(  46) = (   0.0479535   0.2737414   1.4053967  )
        47           N   tau(  47) = (   0.1187444   0.0184026   1.7515182  )
        48           N   tau(  48) = (   0.1217950   0.1937778   1.7543293  )
        49           N   tau(  49) = (  -0.0065001   0.1963060   1.5455752  )
        50           O   tau(  50) = (  -0.0004611   0.0116867   1.5872325  )
        51           Li  tau(  51) = (   0.0926606   0.3759836   0.8766270  )
        52           Li  tau(  52) = (  -0.0386079   0.4696050   0.8766270  )
        53           Li  tau(  53) = (  -0.0540524   0.3091127   0.8766270  )
        54           Li  tau(  54) = (  -0.2562895   0.4906166   1.2674156  )
        55           Li  tau(  55) = (  -0.1174031   0.4008838   1.2714364  )
        56           Li  tau(  56) = (  -0.1281821   0.5477294   1.2715299  )
        57           Li  tau(  57) = (  -0.0996725   0.3791318   1.0336250  )
        58           Li  tau(  58) = (   0.0548319   0.3014656   1.0336250  )
        59           Li  tau(  59) = (   0.0448406   0.4741032   1.0336250  )
        60           Li  tau(  60) = (  -0.0609302   0.4929758   1.1267462  )
        61           Li  tau(  61) = (  -0.2288230   0.5542042   1.1189500  )
        62           Li  tau(  62) = (  -0.2058384   0.3856428   1.1171851  )
        63           Li  tau(  63) = (  -0.1666667   0.2886750   0.9626942  )
        64           Li  tau(  64) = (   0.8308086   0.2865261   1.1924932  )
        65           Cr  tau(  65) = (   0.0015568   0.3824238   1.2117205  )
        66           Cr  tau(  66) = (  -0.1666667   0.4811250   0.9478909  )
        67           N   tau(  67) = (   0.0977836   0.3778461   1.2421453  )
        68           N   tau(  68) = (   0.0036523   0.3769882   1.1093831  )
        69           N   tau(  69) = (  -0.2636006   0.4869528   0.9168466  )
        70           N   tau(  70) = (  -0.1232467   0.3942641   0.9168466  )
        71           N   tau(  71) = (  -0.1131527   0.5621587   0.9168466  )
        72           N   tau(  72) = (  -0.0617683   0.3106526   1.2500291  )
        73           N   tau(  73) = (  -0.0423538   0.4662142   1.2385395  )
        74           N   tau(  74) = (  -0.1666667   0.4811250   1.0497374  )
        75           O   tau(  75) = (  -0.1639374   0.2882998   1.0753992  )
        76           Li  tau(  76) = (   0.1118494   0.3812573   1.3564458  )
        77           Li  tau(  77) = (  -0.0465372   0.4833236   1.3629796  )
        78           Li  tau(  78) = (  -0.0445724   0.3163192   1.3584328  )
        79           Li  tau(  79) = (  -0.2659575   0.4906031   1.7847891  )
        80           Li  tau(  80) = (  -0.1104006   0.3949964   1.7926671  )
        81           Li  tau(  81) = (  -0.1004685   0.5699431   1.7935963  )
        82           Li  tau(  82) = (  -0.1029809   0.3857650   1.5196737  )
        83           Li  tau(  83) = (   0.0288880   0.3051538   1.5084471  )
        84           Li  tau(  84) = (   0.0621604   0.4898948   1.5453472  )
        85           Li  tau(  85) = (  -0.0700384   0.5059651   1.6058696  )
        86           Li  tau(  86) = (  -0.2123740   0.5417642   1.6517522  )
        87           Li  tau(  87) = (  -0.1995489   0.3828125   1.6227300  )
        88           Li  tau(  88) = (  -0.1699873   0.2956547   1.4543124  )
        89           Li  tau(  89) = (   0.8370210   0.2824866   1.7083589  )
        90           Cr  tau(  90) = (   0.0004861   0.3903959   1.7080550  )
        91           Cr  tau(  91) = (  -0.1616126   0.4811671   1.4443481  )
        92           N   tau(  92) = (   0.0934741   0.3837435   1.7379246  )
        93           N   tau(  93) = (  -0.0063814   0.3925699   1.5995228  )
        94           N   tau(  94) = (  -0.2585781   0.4874823   1.4167227  )
        95           N   tau(  95) = (  -0.1152887   0.4030076   1.4016973  )
        96           N   tau(  96) = (  -0.1158018   0.5642965   1.4162493  )
        97           N   tau(  97) = (  -0.0494642   0.3114422   1.7383162  )
        98           N   tau(  98) = (  -0.0527352   0.4779867   1.7397422  )
        99           N   tau(  99) = (  -0.1616781   0.4787768   1.5521791  )
       100           O   tau( 100) = (   0.8334209   0.2842510   1.5686129  )
       101           Li  tau( 101) = (   0.5926583   0.0873080   0.8766270  )
       102           Li  tau( 102) = (   0.4613921   0.1809300   0.8766270  )
       103           Li  tau( 103) = (   0.4459477   0.0204373   0.8766270  )
       104           Li  tau( 104) = (   0.2318211   0.1948818   1.2773273  )
       105           Li  tau( 105) = (   0.3752951   0.1013609   1.2786072  )
       106           Li  tau( 106) = (   0.3828773   0.2599216   1.2713779  )
       107           Li  tau( 107) = (   0.4003275   0.0904568   1.0336250  )
       108           Li  tau( 108) = (   0.5548318   0.0127904   1.0336250  )
       109           Li  tau( 109) = (   0.5448406   0.1854282   1.0336250  )
       110           Li  tau( 110) = (   0.4279634   0.1931858   1.1240462  )
       111           Li  tau( 111) = (   0.2675840   0.2740979   1.1002136  )
       112           Li  tau( 112) = (   0.2855642   0.1129113   1.1099442  )
       113           Li  tau( 113) = (   0.3333333   0.0000000   0.9626942  )
       114           Li  tau( 114) = (   0.3279713   0.0051331   1.2025335  )
       115           Cr  tau( 115) = (   0.5040330   0.0920587   1.2083134  )
       116           Cr  tau( 116) = (   0.3333333   0.1924500   0.9478909  )
       117           N   tau( 117) = (   0.6054804   0.0904866   1.2421804  )
       118           N   tau( 118) = (   0.5009456   0.0909465   1.0988461  )
       119           N   tau( 119) = (   0.2363994   0.1982778   0.9168466  )
       120           N   tau( 120) = (   0.3767532   0.1055885   0.9168466  )
       121           N   tau( 121) = (   0.3868473   0.2734837   0.9168466  )
       122           N   tau( 122) = (   0.4484800   0.0079095   1.2460843  )
       123           N   tau( 123) = (   0.4582643   0.1751845   1.2344135  )
       124           N   tau( 124) = (   0.3333333   0.1924500   1.0497374  )
       125           O   tau( 125) = (   0.3368328   0.0083376   1.0733537  )
       126           Li  tau( 126) = (   0.3548060   0.5765336   1.4710852  )
       127           Li  tau( 127) = (   0.4608691   0.1761810   1.3737563  )
       128           Li  tau( 128) = (   0.6062986   0.0808905   1.3668952  )
       129           Li  tau( 129) = (   0.2304705   0.2264561   1.7855547  )
       130           Li  tau( 130) = (   0.3830007   0.1196011   1.7986690  )
       131           Li  tau( 131) = (   0.3756528   0.2732826   1.7850346  )
       132           Li  tau( 132) = (   0.3956060   0.1093680   1.5467089  )
       133           Li  tau( 133) = (   0.0635321   0.4959131   1.7566377  )
       134           Li  tau( 134) = (   0.5400969   0.1932413   1.5322855  )
       135           Li  tau( 135) = (   0.4461277   0.2148537   1.6172073  )
       136           Li  tau( 136) = (   0.2884342   0.2871923   1.6240333  )
       137           Li  tau( 137) = (   0.2798386   0.1174972   1.6173125  )
       138           Li  tau( 138) = (   0.4417317   0.0121780   1.3720089  )
       139           Li  tau( 139) = (   0.4375432   0.0088505   1.6074884  )
       140           Cr  tau( 140) = (   0.4955070   0.1016268   1.7158746  )
       141           Cr  tau( 141) = (   0.3282506   0.1977291   1.4455579  )
       142           N   tau( 142) = (   0.5950193   0.0834864   1.7435409  )
       143           N   tau( 143) = (   0.5010636   0.1093820   1.6117196  )
       144           N   tau( 144) = (   0.2316691   0.2070242   1.4057122  )
       145           N   tau( 145) = (   0.3661601   0.1124666   1.4119947  )
       146           N   tau( 146) = (   0.3934045   0.2707556   1.4029012  )
       147           N   tau( 147) = (   0.4298751   0.0264096   1.7381175  )
       148           N   tau( 148) = (   0.4592058   0.1931086   1.7585488  )
       149           N   tau( 149) = (   0.3325853   0.2091240   1.5445933  )
       150           O   tau( 150) = (   0.3251661   0.0258460   1.5829370  )
       151           Li  tau( 151) = (   0.4259940   0.3759836   0.8766270  )
       152           Li  tau( 152) = (   0.2947255   0.4696050   0.8766270  )
       153           Li  tau( 153) = (   0.2792811   0.3091127   0.8766270  )
       154           Li  tau( 154) = (   0.0762642   0.4754293   1.2723422  )
       155           Li  tau( 155) = (   0.2197330   0.4061682   1.2960637  )
       156           Li  tau( 156) = (   0.2218532   0.5474050   1.2983780  )
       157           Li  tau( 157) = (   0.2336608   0.3791318   1.0336250  )
       158           Li  tau( 158) = (   0.3881652   0.3014656   1.0336250  )
       159           Li  tau( 159) = (   0.3781739   0.4741032   1.0336250  )
       160           Li  tau( 160) = (   0.2605850   0.4861691   1.1203176  )
       161           Li  tau( 161) = (   0.1020137   0.5720792   1.1216442  )
       162           Li  tau( 162) = (   0.1175615   0.3867579   1.1269390  )
       163           Li  tau( 163) = (   0.1666667   0.2886750   0.9626942  )
       164           Li  tau( 164) = (   0.1813665   0.2916100   1.2025744  )
       165           Cr  tau( 165) = (   0.3185189   0.3891137   1.2034569  )
       166           Cr  tau( 166) = (   0.1666667   0.4811250   0.9478909  )
       167           N   tau( 167) = (   0.4137948   0.3752413   1.2415901  )
       168           N   tau( 168) = (   0.3305170   0.3880641   1.0990564  )
       169           N   tau( 169) = (   0.0697328   0.4869528   0.9168466  )
       170           N   tau( 170) = (   0.2100866   0.3942641   0.9168466  )
       171           N   tau( 171) = (   0.2201806   0.5621587   0.9168466  )
       172           N   tau( 172) = (   0.2685173   0.3155156   1.2490473  )
       173           N   tau( 173) = (   0.2799432   0.4771299   1.2328005  )
       174           N   tau( 174) = (   0.1666667   0.4811250   1.0497374  )
       175           O   tau( 175) = (   0.1701095   0.3008467   1.0706830  )
       176           Li  tau( 176) = (   0.4298026   0.3861302   1.3686543  )
       177           Li  tau( 177) = (   0.3068545   0.4684694   1.3815582  )
       178           Li  tau( 178) = (   0.2744772   0.3058639   1.3600750  )
       179           Li  tau( 179) = (   0.3145706   0.0248414   1.6975589  )
       180           Li  tau( 180) = (   0.2042611   0.3892422   1.7795995  )
       181           Li  tau( 181) = (   0.2261721   0.5639417   1.7549137  )
       182           Li  tau( 182) = (   0.2295173   0.3911860   1.5207082  )
       183           Li  tau( 183) = (   0.3906273   0.3007970   1.5125906  )
       184           Li  tau( 184) = (   0.3872669   0.4651950   1.5441492  )
       185           Li  tau( 185) = (   0.2508117   0.4703963   1.6367034  )
       186           Li  tau( 186) = (   0.3323947   0.0294277   1.4767541  )
       187           Li  tau( 187) = (   0.1309821   0.3946481   1.6145715  )
       188           Li  tau( 188) = (   0.1611901   0.2902278   1.4502215  )
       189           Li  tau( 189) = (   0.1689821   0.2978071   1.6894530  )
       190           Cr  tau( 190) = (   0.3374605   0.3962699   1.7198953  )
       191           Cr  tau( 191) = (   0.1698009   0.4849980   1.4470014  )
       192           N   tau( 192) = (   0.4275608   0.3769660   1.7498935  )
       193           N   tau( 193) = (   0.3438645   0.3828920   1.6183819  )
       194           N   tau( 194) = (   0.0739850   0.5062924   1.4238526  )
       195           N   tau( 195) = (   0.2174123   0.3959163   1.4171376  )
       196           N   tau( 196) = (   0.2304454   0.5568673   1.4141980  )
       197           N   tau( 197) = (   0.2840324   0.3139055   1.7493909  )
       198           N   tau( 198) = (   0.2919629   0.4777284   1.7537039  )
       199           N   tau( 199) = (   0.1764808   0.4827725   1.5470888  )
       200           O   tau( 200) = (   0.1836440   0.2849377   1.5797928  )
       201           Li  tau( 201) = (   0.9259927   0.0873080   0.8766270  )
       202           Li  tau( 202) = (   0.7947266   0.1809300   0.8766270  )
       203           Li  tau( 203) = (   0.7792805   0.0204373   0.8766270  )
       204           Li  tau( 204) = (   0.5760719   0.1918235   1.2816169  )
       205           Li  tau( 205) = (   0.7096412   0.1174709   1.2880163  )
       206           Li  tau( 206) = (   0.7181387   0.2549518   1.2725292  )
       207           Li  tau( 207) = (   0.7336608   0.0904568   1.0336250  )
       208           Li  tau( 208) = (   0.8881634   0.0127904   1.0336250  )
       209           Li  tau( 209) = (   0.8781757   0.1854282   1.0336250  )
       210           Li  tau( 210) = (   0.7846104   0.1920649   1.1104117  )
       211           Li  tau( 211) = (   0.6067953   0.2718590   1.1102130  )
       212           Li  tau( 212) = (   0.6211603   0.1163535   1.1271845  )
       213           Li  tau( 213) = (   0.6666690   0.0000000   0.9626942  )
       214           Li  tau( 214) = (   0.6572657   0.0108567   1.1958711  )
       215           Cr  tau( 215) = (   0.8345489   0.0950807   1.2156771  )
       216           Cr  tau( 216) = (   0.6666690   0.1924500   0.9478909  )
       217           N   tau( 217) = (   0.9292070   0.0894247   1.2414733  )
       218           N   tau( 218) = (   0.8388736   0.0936284   1.1099734  )
       219           N   tau( 219) = (   0.5697327   0.1982778   0.9168466  )
       220           N   tau( 220) = (   0.7100854   0.1055885   0.9168466  )
       221           N   tau( 221) = (   0.7201783   0.2734837   0.9168466  )
       222           N   tau( 222) = (   0.7744239   0.0217170   1.2542428  )
       223           N   tau( 223) = (   0.7891571   0.1844780   1.2411927  )
       224           N   tau( 224) = (   0.6666690   0.1924500   1.0497374  )
       225           O   tau( 225) = (   0.6602696  -0.0010782   1.0707589  )
       226           Li  tau( 226) = (   0.9264720   0.0837383   1.3695426  )
       227           Li  tau( 227) = (   0.7970935   0.1758268   1.3760764  )
       228           Li  tau( 228) = (   0.7820740   0.0203931   1.3668017  )
       229           Li  tau( 229) = (   0.6033473   0.1870856   1.7681624  )
       230           Li  tau( 230) = (   0.7096412   0.0847143   1.7849937  )
       231           Li  tau( 231) = (   0.7206049   0.2777376   1.7848125  )
       232           Li  tau( 232) = (   0.7168822   0.0983470   1.5293459  )
       233           Li  tau( 233) = (   0.9027504   0.0119102   1.5260848  )
       234           Li  tau( 234) = (   0.8745231   0.1950401   1.5399531  )
       235           Li  tau( 235) = (   0.7609531   0.1742355   1.6320749  )
       236           Li  tau( 236) = (   0.6038440   0.2753339   1.6303041  )
       237           Li  tau( 237) = (   0.6134168   0.0989899   1.6265989  )
       238           Li  tau( 238) = (   0.5783804   0.0163986   1.5414842  )
       239           Li  tau( 239) = (   0.4750056   0.5451690   1.6414489  )
       240           Cr  tau( 240) = (   0.8378041   0.0847073   1.7218590  )
       241           Cr  tau( 241) = (   0.6730625   0.1968968   1.4426416  )
       242           N   tau( 242) = (   0.9336252   0.1054769   1.7672507  )
       243           N   tau( 243) = (   0.8390606   0.0822527   1.6234430  )
       244           N   tau( 244) = (   0.5795656   0.2111122   1.3995408  )
       245           N   tau( 245) = (   0.7148484   0.1079665   1.4072843  )
       246           N   tau( 246) = (   0.7323692   0.2756735   1.4194461  )
       247           N   tau( 247) = (   0.4576507   0.5725934   1.7591098  )
       248           N   tau( 248) = (   0.7924942   0.1696916   1.7441604  )
       249           N   tau( 249) = (   0.6608540   0.1946784   1.5353186  )
       250           O   tau( 250) = (   0.6685391   0.0093621   1.5868818  )
       251           Li  tau( 251) = (   0.7593284   0.3759836   0.8766270  )
       252           Li  tau( 252) = (   0.6280565   0.4696050   0.8766270  )
       253           Li  tau( 253) = (   0.6126161   0.3091127   0.8766270  )
       254           Li  tau( 254) = (   0.4021287   0.4985594   1.2803780  )
       255           Li  tau( 255) = (   0.5364256   0.3967655   1.2850942  )
       256           Li  tau( 256) = (   0.5590788   0.5494821   1.2937845  )
       257           Li  tau( 257) = (   0.5669941   0.3791318   1.0336250  )
       258           Li  tau( 258) = (   0.7214991   0.3014656   1.0336250  )
       259           Li  tau( 259) = (   0.7115055   0.4741032   1.0336250  )
       260           Li  tau( 260) = (   0.6001038   0.4822635   1.1244202  )
       261           Li  tau( 261) = (   0.4481212   0.5633006   1.1221176  )
       262           Li  tau( 262) = (   0.4439069   0.3825857   1.1269507  )
       263           Li  tau( 263) = (   0.5000000   0.2886750   0.9626942  )
       264           Li  tau( 264) = (   0.5028811   0.2897194   1.2062913  )
       265           Cr  tau( 265) = (   0.6596793   0.3891639   1.2023173  )
       266           Cr  tau( 266) = (   0.5000000   0.4811250   0.9478909  )
       267           N   tau( 267) = (   0.7580661   0.3884866   1.2330343  )
       268           N   tau( 268) = (   0.6809521   0.3830550   1.1001259  )
       269           N   tau( 269) = (   0.4030661   0.4869528   0.9168466  )
       270           N   tau( 270) = (   0.5434199   0.3942641   0.9168466  )
       271           N   tau( 271) = (   0.5535140   0.5621587   0.9168466  )
       272           N   tau( 272) = (   0.6090921   0.3061386   1.2384051  )
       273           N   tau( 273) = (   0.6228435   0.4839022   1.2327187  )
       274           N   tau( 274) = (   0.5000000   0.4811250   1.0497374  )
       275           O   tau( 275) = (   0.5024013   0.2921692   1.0829382  )
       276           Li  tau( 276) = (   0.7734538   0.3580343   1.3652588  )
       277           Li  tau( 277) = (   0.6474124   0.4525370   1.3598880  )
       278           Li  tau( 278) = (   0.6357123   0.3185890   1.3634939  )
       279           Li  tau( 279) = (   0.3550959   0.5606146   1.6879861  )
       280           Li  tau( 280) = (   0.5383109   0.4122198   1.7607929  )
       281           Li  tau( 281) = (   0.5786480   0.5575949   1.7843566  )
       282           Li  tau( 282) = (   0.5479725   0.3858327   1.5434712  )
       283           Li  tau( 283) = (   0.7324394   0.2996703   1.5264764  )
       284           Li  tau( 284) = (   0.7354082   0.4760505   1.5543999  )
       285           Li  tau( 285) = (   0.6157428   0.4970966   1.6190423  )
       286           Li  tau( 286) = (   0.4038439   0.4886447   1.8139282  )
       287           Li  tau( 287) = (   0.4686138   0.3590962   1.6278145  )
       288           Li  tau( 288) = (   0.5009198   0.2915334   1.4346818  )
       289           Li  tau( 289) = (   0.5062860   0.2821950   1.7735157  )
       290           Cr  tau( 290) = (   0.6779073   0.3859736   1.7051972  )
       291           Cr  tau( 291) = (   0.5130249   0.4818608   1.4454585  )
       292           N   tau( 292) = (   0.7676564   0.3691523   1.7542474  )
       293           N   tau( 293) = (   0.6769255   0.3821053   1.6016793  )
       294           N   tau( 294) = (   0.4067684   0.4859681   1.4136954  )
       295           N   tau( 295) = (   0.5579251   0.3956071   1.4057298  )
       296           N   tau( 296) = (   0.5528091   0.5694031   1.4114629  )
       297           N   tau( 297) = (   0.6279922   0.3041872   1.7460773  )
       298           N   tau( 298) = (   0.6302539   0.4746643   1.7407766  )
       299           N   tau( 299) = (   0.5155256   0.4782561   1.5489122  )
       300           O   tau( 300) = (   0.5014072   0.2886131   1.5547914  )

   Crystallographic axes

     site n.     atom                  positions (cryst. coord.)
         1           Li  tau(   1) = (  0.3097346  0.1512218  0.3321863  )
         2           Li  tau(   2) = (  0.2325188  0.3133799  0.3321863  )
         3           Li  tau(   3) = (  0.1244139  0.0353984  0.3321863  )
         4           Li  tau(   4) = (  0.0326003  0.3480481  0.4874391  )
         5           Li  tau(   5) = (  0.1033744  0.1987344  0.4848967  )
         6           Li  tau(   6) = (  0.2169873  0.4750440  0.4845778  )
         7           Li  tau(   7) = (  0.1192194  0.1566758  0.3916786  )
         8           Li  tau(   8) = (  0.2288830  0.0221536  0.3916786  )
         9           Li  tau(   9) = (  0.3185643  0.3211711  0.3916786  )
        10           Li  tau(  10) = (  0.2011001  0.3439607  0.4314347  )
        11           Li  tau(  11) = (  0.0903082  0.4546271  0.4250611  )
        12           Li  tau(  12) = (  0.0137859  0.1616266  0.4260688  )
        13           Li  tau(  13) = (  0.0000000  0.0000000  0.3648003  )
        14           Li  tau(  14) = ( -0.0070935  0.9981401  0.4504047  )
        15           Cr  tau(  15) = (  0.2203831  0.1705819  0.4563354  )
        16           Cr  tau(  16) = (  0.1111111  0.3333332  0.3591908  )
        17           N   tau(  17) = (  0.3047641  0.1351393  0.4679862  )
        18           N   tau(  18) = (  0.2256972  0.1624536  0.4170200  )
        19           N   tau(  19) = (  0.0175419  0.3434273  0.3474270  )
        20           N   tau(  20) = (  0.1043816  0.1828847  0.3474270  )
        21           N   tau(  21) = (  0.2114100  0.4736876  0.3474270  )
        22           N   tau(  22) = (  0.1116178  0.0379329  0.4714565  )
        23           N   tau(  23) = (  0.2472728  0.3284501  0.4687503  )
        24           N   tau(  24) = (  0.1111111  0.3333332  0.3977842  )
        25           O   tau(  25) = (  0.0053627  0.9953261  0.4068839  )
        26           Li  tau(  26) = (  0.3091270  0.1552586  0.5187554  )
        27           Li  tau(  27) = (  0.2356211  0.3178408  0.5183102  )
        28           Li  tau(  28) = (  0.1198335  0.0325555  0.5179470  )
        29           Li  tau(  29) = (  0.0261989  0.3604744  0.6680975  )
        30           Li  tau(  30) = (  0.1026090  0.1993357  0.6873488  )
        31           Li  tau(  31) = (  0.2139280  0.4796385  0.6692512  )
        32           Li  tau(  32) = (  0.1122394  0.1593764  0.5885256  )
        33           Li  tau(  33) = (  0.2054675  0.0567183  0.5773242  )
        34           Li  tau(  34) = (  0.3186775  0.3280624  0.5768592  )
        35           Li  tau(  35) = (  0.2174613  0.3447877  0.6154083  )
        36           Li  tau(  36) = (  0.1141047  0.4754681  0.6125537  )
        37           Li  tau(  37) = (  0.0114479  0.1871685  0.6155434  )
        38           Li  tau(  38) = (  0.0136600 -0.0111196  0.5535552  )
        39           Li  tau(  39) = (  0.0309965  0.0479156  0.6471409  )
        40           Cr  tau(  40) = (  0.2306795  0.1907883  0.6533484  )
        41           Cr  tau(  41) = (  0.1080324  0.3237392  0.5449848  )
        42           N   tau(  42) = (  0.3295046  0.1942390  0.6639783  )
        43           N   tau(  43) = (  0.2309222  0.1771433  0.6131893  )
        44           N   tau(  44) = (  0.0149706  0.3370319  0.5327050  )
        45           N   tau(  45) = (  0.0975760  0.1715132  0.5341666  )
        46           N   tau(  46) = (  0.2059982  0.4741340  0.5325566  )
        47           N   tau(  47) = (  0.1293691  0.0318742  0.6637148  )
        48           N   tau(  48) = (  0.2336727  0.3356330  0.6647800  )
        49           N   tau(  49) = (  0.1068372  0.3400120  0.5856754  )
        50           O   tau(  50) = (  0.0062862  0.0202420  0.6014609  )
        51           Li  tau(  51) = (  0.3097348  0.6512226  0.3321863  )
        52           Li  tau(  52) = (  0.2325186  0.8133797  0.3321863  )
        53           Li  tau(  53) = (  0.1244139  0.5353989  0.3321863  )
        54           Li  tau(  54) = (  0.0269681  0.8497728  0.4802705  )
        55           Li  tau(  55) = (  0.1140473  0.6943512  0.4817941  )
        56           Li  tau(  56) = (  0.1880496  0.9486951  0.4818295  )
        57           Li  tau(  57) = (  0.1192194  0.6566756  0.3916786  )
        58           Li  tau(  58) = (  0.2288831  0.5221537  0.3916786  )
        59           Li  tau(  59) = (  0.3185642  0.8211709  0.3916786  )
        60           Li  tau(  60) = (  0.2236895  0.8538592  0.4269657  )
        61           Li  tau(  61) = (  0.0911469  0.9599097  0.4240114  )
        62           Li  tau(  62) = (  0.0168125  0.6679529  0.4233426  )
        63           Li  tau(  63) = ( -0.0000001  0.4999998  0.3648003  )
        64           Li  tau(  64) = (  0.9962345  0.4962778  0.4518796  )
        65           Cr  tau(  65) = (  0.2223493  0.6623775  0.4591656  )
        66           Cr  tau(  66) = (  0.1111110  0.8333330  0.3591908  )
        67           N   tau(  67) = (  0.3159332  0.6544486  0.4706947  )
        68           N   tau(  68) = (  0.2213065  0.6529627  0.4203862  )
        69           N   tau(  69) = (  0.0175418  0.8434271  0.3474270  )
        70           N   tau(  70) = (  0.1043818  0.6828855  0.3474270  )
        71           N   tau(  71) = (  0.2114098  0.9736874  0.3474270  )
        72           N   tau(  72) = (  0.1175871  0.5380661  0.4736821  )
        73           N   tau(  73) = (  0.2268151  0.8075066  0.4693283  )
        74           N   tau(  74) = (  0.1111110  0.8333330  0.3977842  )
        75           O   tau(  75) = (  0.0025126  0.4993499  0.4075084  )
        76           Li  tau(  76) = (  0.3319684  0.6603571  0.5140073  )
        77           Li  tau(  77) = (  0.2325098  0.8371410  0.5164832  )
        78           Li  tau(  78) = (  0.1380546  0.5478808  0.5147603  )
        79           Li  tau(  79) = (  0.0172923  0.8497495  0.6763224  )
        80           Li  tau(  80) = (  0.1176506  0.6841539  0.6793076  )
        81           Li  tau(  81) = (  0.2285883  0.9871704  0.6796598  )
        82           Li  tau(  82) = (  0.1197406  0.6681645  0.5758604  )
        83           Li  tau(  83) = (  0.2050686  0.5285420  0.5716062  )
        84           Li  tau(  84) = (  0.3450013  0.8485227  0.5855890  )
        85           Li  tau(  85) = (  0.2220807  0.8763573  0.6085232  )
        86           Li  tau(  86) = (  0.1004137  0.9383632  0.6259098  )
        87           Li  tau(  87) = (  0.0214680  0.6630507  0.6149122  )
        88           Li  tau(  88) = (  0.0007090  0.5120890  0.5510926  )
        89           Li  tau(  89) = (  1.0001147  0.4892812  0.6473602  )
        90           Cr  tau(  90) = (  0.2258813  0.6761855  0.6472450  )
        91           Cr  tau(  91) = (  0.1161893  0.8334059  0.5473167  )
        92           N   tau(  92) = (  0.3150285  0.6646632  0.6585637  )
        93           N   tau(  93) = (  0.2202689  0.6799510  0.6061181  )
        94           N   tau(  94) = (  0.0228700  0.8443441  0.5368484  )
        95           N   tau(  95) = (  0.1173878  0.6980297  0.5311548  )
        96           N   tau(  96) = (  0.2099949  0.9773901  0.5366691  )
        97           N   tau(  97) = (  0.1303470  0.5394337  0.6587121  )
        98           N   tau(  98) = (  0.2232305  0.8278972  0.6592524  )
        99           N   tau(  99) = (  0.1147439  0.8292658  0.5881779  )
       100           O   tau( 100) = (  0.9975333  0.4923371  0.5944053  )
       101           Li  tau( 101) = (  0.6430655  0.1512218  0.3321863  )
       102           Li  tau( 102) = (  0.5658521  0.3133799  0.3321863  )
       103           Li  tau( 103) = (  0.4577472  0.0353984  0.3321863  )
       104           Li  tau( 104) = (  0.3443361  0.3375451  0.4840264  )
       105           Li  tau( 105) = (  0.4338158  0.1755622  0.4845114  )
       106           Li  tau( 106) = (  0.5329432  0.4501975  0.4817720  )
       107           Li  tau( 107) = (  0.4525527  0.1566758  0.3916786  )
       108           Li  tau( 108) = (  0.5622164  0.0221536  0.3916786  )
       109           Li  tau( 109) = (  0.6518976  0.3211711  0.3916786  )
       110           Li  tau( 110) = (  0.5394993  0.3346076  0.4259425  )
       111           Li  tau( 111) = (  0.4258344  0.4747514  0.4169115  )
       112           Li  tau( 112) = (  0.3507535  0.1955681  0.4205988  )
       113           Li  tau( 113) = (  0.3333333  0.0000000  0.3648003  )
       114           Li  tau( 114) = (  0.3309349  0.0088908  0.4556843  )
       115           Cr  tau( 115) = (  0.5571831  0.1594503  0.4578745  )
       116           Cr  tau( 116) = (  0.4444444  0.3333332  0.3591908  )
       117           N   tau( 117) = (  0.6577229  0.1567274  0.4707079  )
       118           N   tau( 118) = (  0.5534536  0.1575240  0.4163933  )
       119           N   tau( 119) = (  0.3508752  0.3434273  0.3474270  )
       120           N   tau( 120) = (  0.4377148  0.1828847  0.3474270  )
       121           N   tau( 121) = (  0.5447432  0.4736876  0.3474270  )
       122           N   tau( 122) = (  0.4530466  0.0136997  0.4721873  )
       123           N   tau( 123) = (  0.5594072  0.3034285  0.4677648  )
       124           N   tau( 124) = (  0.4444444  0.3333332  0.3977842  )
       125           O   tau( 125) = (  0.3416465  0.0144411  0.4067333  )
       126           Li  tau( 126) = (  0.6876678  0.9985855  0.5574484  )
       127           Li  tau( 127) = (  0.5625872  0.3051544  0.5205669  )
       128           Li  tau( 128) = (  0.6530007  0.1401064  0.5179670  )
       129           Li  tau( 129) = (  0.3612150  0.3922335  0.6766125  )
       130           Li  tau( 130) = (  0.4520524  0.2071552  0.6815820  )
       131           Li  tau( 131) = (  0.5334326  0.4733394  0.6764154  )
       132           Li  tau( 132) = (  0.4587496  0.1894309  0.5861050  )
       133           Li  tau( 133) = (  0.3498477  0.8589467  0.6656548  )
       134           Li  tau( 134) = (  0.6516648  0.3347038  0.5806395  )
       135           Li  tau( 135) = (  0.5701736  0.3721375  0.6128194  )
       136           Li  tau( 136) = (  0.4542448  0.4974317  0.6154061  )
       137           Li  tau( 137) = (  0.3476757  0.2035112  0.6128593  )
       138           Li  tau( 138) = (  0.4487627  0.0210929  0.5199047  )
       139           Li  tau( 139) = (  0.4426531  0.0153296  0.6091366  )
       140           Cr  tau( 140) = (  0.5541812  0.1760227  0.6502081  )
       141           Cr  tau( 141) = (  0.4424096  0.3424768  0.5477752  )
       142           N   tau( 142) = (  0.6432202  0.1446028  0.6606919  )
       143           N   tau( 143) = (  0.5642153  0.1894552  0.6107400  )
       144           N   tau( 144) = (  0.3511946  0.3585765  0.5326762  )
       145           N   tau( 145) = (  0.4310927  0.1947978  0.5350569  )
       146           N   tau( 146) = (  0.5497253  0.4689624  0.5316110  )
       147           N   tau( 147) = (  0.4451226  0.0457427  0.6586368  )
       148           N   tau( 148) = (  0.5706972  0.3344740  0.6663789  )
       149           N   tau( 149) = (  0.4533231  0.3622135  0.5853034  )
       150           O   tau( 150) = (  0.3400883  0.0447666  0.5998332  )
       151           Li  tau( 151) = (  0.6430682  0.6512226  0.3321863  )
       152           Li  tau( 152) = (  0.5658520  0.8133797  0.3321863  )
       153           Li  tau( 153) = (  0.4577474  0.5353989  0.3321863  )
       154           Li  tau( 154) = (  0.3507534  0.8234677  0.4821374  )
       155           Li  tau( 155) = (  0.4542343  0.7035039  0.4911263  )
       156           Li  tau( 156) = (  0.5378977  0.9481333  0.4920033  )
       157           Li  tau( 157) = (  0.4525527  0.6566756  0.3916786  )
       158           Li  tau( 158) = (  0.5622164  0.5221537  0.3916786  )
       159           Li  tau( 159) = (  0.6518976  0.8211709  0.3916786  )
       160           Li  tau( 160) = (  0.5412748  0.8420696  0.4245296  )
       161           Li  tau( 161) = (  0.4323037  0.9908702  0.4250323  )
       162           Li  tau( 162) = (  0.3408563  0.6698843  0.4270387  )
       163           Li  tau( 163) = (  0.3333333  0.4999998  0.3648003  )
       164           Li  tau( 164) = (  0.3497276  0.5050833  0.4556998  )
       165           Cr  tau( 165) = (  0.5431738  0.6739646  0.4560342  )
       166           Cr  tau( 166) = (  0.4444443  0.8333330  0.3591908  )
       167           N   tau( 167) = (  0.6304405  0.6499371  0.4704843  )
       168           N   tau( 168) = (  0.5545659  0.6721467  0.4164730  )
       169           N   tau( 169) = (  0.3508751  0.8434271  0.3474270  )
       170           N   tau( 170) = (  0.4377151  0.6828855  0.3474270  )
       171           N   tau( 171) = (  0.5447431  0.9736874  0.3474270  )
       172           N   tau( 172) = (  0.4506803  0.5464890  0.4733101  )
       173           N   tau( 173) = (  0.5554143  0.8264133  0.4671536  )
       174           N   tau( 174) = (  0.4444443  0.8333330  0.3977842  )
       175           O   tau( 175) = (  0.3438034  0.5210817  0.4057212  )
       176           Li  tau( 176) = (  0.6527350  0.6687972  0.5186336  )
       177           Li  tau( 177) = (  0.5773255  0.8114129  0.5235233  )
       178           Li  tau( 178) = (  0.4510678  0.5297718  0.5153826  )
       179           Li  tau( 179) = (  0.3289128  0.0430266  0.6432676  )
       180           Li  tau( 180) = (  0.4289902  0.6741873  0.6743558  )
       181           Li  tau( 181) = (  0.5517640  0.9767757  0.6650015  )
       182           Li  tau( 182) = (  0.4553687  0.6775541  0.5762524  )
       183           Li  tau( 183) = (  0.5642925  0.5209957  0.5731763  )
       184           Li  tau( 184) = (  0.6558473  0.8057413  0.5851350  )
       185           Li  tau( 185) = (  0.5223952  0.8147502  0.6202073  )
       186           Li  tau( 186) = (  0.3493848  0.0509702  0.5595966  )
       187           Li  tau( 187) = (  0.3588323  0.6835506  0.6118207  )
       188           Li  tau( 188) = (  0.3287532  0.5026893  0.5495424  )
       189           Li  tau( 189) = (  0.3409211  0.5158171  0.6401960  )
       190           Cr  tau( 190) = (  0.5662470  0.6863595  0.6517317  )
       191           Cr  tau( 191) = (  0.4498146  0.8400411  0.5483222  )
       192           N   tau( 192) = (  0.6452022  0.6529242  0.6630992  )
       193           N   tau( 193) = (  0.5649273  0.6631883  0.6132646  )
       194           N   tau( 194) = (  0.3662930  0.8769242  0.5395502  )
       195           N   tau( 195) = (  0.4459946  0.6857471  0.5370057  )
       196           N   tau( 196) = (  0.5519529  0.9645225  0.5358917  )
       197           N   tau( 197) = (  0.4652658  0.5437003  0.6629087  )
       198           N   tau( 198) = (  0.5677796  0.8274498  0.6645431  )
       199           N   tau( 199) = (  0.4552096  0.8361865  0.5862490  )
       200           O   tau( 200) = (  0.3481528  0.4935265  0.5986417  )
       201           Li  tau( 201) = (  0.9764000  0.1512218  0.3321863  )
       202           Li  tau( 202) = (  0.8991866  0.3133799  0.3321863  )
       203           Li  tau( 203) = (  0.7910799  0.0353984  0.3321863  )
       204           Li  tau( 204) = (  0.6868213  0.3322481  0.4856519  )
       205           Li  tau( 205) = (  0.7774631  0.2034656  0.4880769  )
       206           Li  tau( 206) = (  0.8653351  0.4415894  0.4822082  )
       207           Li  tau( 207) = (  0.7858861  0.1566758  0.3916786  )
       208           Li  tau( 208) = (  0.8955479  0.0221536  0.3916786  )
       209           Li  tau( 209) = (  0.9852327  0.3211711  0.3916786  )
       210           Li  tau( 210) = (  0.8954991  0.3326661  0.4207759  )
       211           Li  tau( 211) = (  0.7637532  0.4708735  0.4207006  )
       212           Li  tau( 212) = (  0.6883371  0.2015302  0.4271318  )
       213           Li  tau( 213) = (  0.6666690  0.0000000  0.3648003  )
       214           Li  tau( 214) = (  0.6635338  0.0188044  0.4531597  )
       215           Cr  tau( 215) = (  0.8894437  0.1646846  0.4606648  )
       216           Cr  tau( 216) = (  0.7777800  0.3333332  0.3591908  )
       217           N   tau( 217) = (  0.9808364  0.1548882  0.4704400  )
       218           N   tau( 218) = (  0.8929300  0.1621692  0.4206098  )
       219           N   tau( 219) = (  0.6842085  0.3434273  0.3474270  )
       220           N   tau( 220) = (  0.7710469  0.1828847  0.3474270  )
       221           N   tau( 221) = (  0.8780741  0.4736876  0.3474270  )
       222           N   tau( 222) = (  0.7869623  0.0376150  0.4752788  )
       223           N   tau( 223) = (  0.8956655  0.3195252  0.4703337  )
       224           N   tau( 224) = (  0.7777800  0.3333332  0.3977842  )
       225           O   tau( 225) = (  0.6596471 -0.0018675  0.4057500  )
       226           Li  tau( 226) = (  0.9748183  0.1450390  0.5189702  )
       227           Li  tau( 227) = (  0.8986072  0.3045410  0.5214461  )
       228           Li  tau( 228) = (  0.7938480  0.0353220  0.5179315  )
       229           Li  tau( 229) = (  0.7113612  0.3240418  0.6700219  )
       230           Li  tau( 230) = (  0.7585510  0.1467295  0.6763999  )
       231           Li  tau( 231) = (  0.8809568  0.4810557  0.6763312  )
       232           Li  tau( 232) = (  0.7736628  0.1703420  0.5795255  )
       233           Li  tau( 233) = (  0.9096268  0.0206291  0.5782898  )
       234           Li  tau( 234) = (  0.9871295  0.3378194  0.5835450  )
       235           Li  tau( 235) = (  0.8615480  0.3017847  0.6184533  )
       236           Li  tau( 236) = (  0.7628081  0.4768923  0.6177823  )
       237           Li  tau( 237) = (  0.6705686  0.1714555  0.6163783  )
       238           Li  tau( 238) = (  0.5878481  0.0284032  0.5841252  )
       239           Li  tau( 239) = (  0.7897591  0.9442605  0.6220055  )
       240           Cr  tau( 240) = (  0.8867099  0.1467173  0.6524758  )
       241           Cr  tau( 241) = (  0.7867409  0.3410353  0.5466701  )
       242           N   tau( 242) = (  0.9945224  0.1826914  0.6696764  )
       243           N   tau( 243) = (  0.8865492  0.1424659  0.6151824  )
       244           N   tau( 244) = (  0.7014513  0.3656571  0.5303376  )
       245           N   tau( 245) = (  0.7771829  0.1870035  0.5332719  )
       246           N   tau( 246) = (  0.8915294  0.4774804  0.5378804  )
       247           N   tau( 247) = (  0.7882377  0.9917609  0.6665915  )
       248           N   tau( 248) = (  0.8904656  0.2939145  0.6609267  )
       249           N   tau( 249) = (  0.7732516  0.3371929  0.5817888  )
       250           O   tau( 250) = (  0.6739443  0.0162156  0.6013280  )
       251           Li  tau( 251) = (  0.9764026  0.6512226  0.3321863  )
       252           Li  tau( 252) = (  0.8991830  0.8133797  0.3321863  )
       253           Li  tau( 253) = (  0.7910824  0.5353989  0.3321863  )
       254           Li  tau( 254) = (  0.6899720  0.8635302  0.4851824  )
       255           Li  tau( 255) = (  0.7654982  0.6872179  0.4869696  )
       256           Li  tau( 256) = (  0.8763224  0.9517308  0.4902626  )
       257           Li  tau( 257) = (  0.7858860  0.6566756  0.3916786  )
       258           Li  tau( 258) = (  0.8955503  0.5221537  0.3916786  )
       259           Li  tau( 259) = (  0.9852291  0.8211709  0.3916786  )
       260           Li  tau( 260) = (  0.8785387  0.8353048  0.4260843  )
       261           Li  tau( 261) = (  0.7733429  0.9756653  0.4252117  )
       262           Li  tau( 262) = (  0.6647929  0.6626579  0.4270432  )
       263           Li  tau( 263) = (  0.6666666  0.4999998  0.3648003  )
       264           Li  tau( 264) = (  0.6701507  0.5018087  0.4571082  )
       265           Cr  tau( 265) = (  0.8843632  0.6740517  0.4556023  )
       266           Cr  tau( 266) = (  0.7777776  0.8333330  0.3591908  )
       267           N   tau( 267) = (  0.9823589  0.6728785  0.4672421  )
       268           N   tau( 268) = (  0.9021090  0.6634707  0.4168783  )
       269           N   tau( 269) = (  0.6842084  0.8434271  0.3474270  )
       270           N   tau( 270) = (  0.7710484  0.6828855  0.3474270  )
       271           N   tau( 271) = (  0.8780764  0.9736874  0.3474270  )
       272           N   tau( 272) = (  0.7858413  0.5302476  0.4692773  )
       273           N   tau( 273) = (  0.9022245  0.8381432  0.4671225  )
       274           N   tau( 274) = (  0.7777776  0.8333330  0.3977842  )
       275           O   tau( 275) = (  0.6710853  0.5060520  0.4103652  )
       276           Li  tau( 276) = (  0.9801650  0.6201336  0.5173469  )
       277           Li  tau( 277) = (  0.9086848  0.7838172  0.5153117  )
       278           Li  tau( 278) = (  0.8196498  0.5518124  0.5166781  )
       279           Li  tau( 279) = (  0.6787669  0.9710130  0.6396402  )
       280           Li  tau( 280) = (  0.7763061  0.7139856  0.6672293  )
       281           Li  tau( 281) = (  0.9005756  0.9657828  0.6761585  )
       282           Li  tau( 282) = (  0.7707331  0.6682819  0.5848782  )
       283           Li  tau( 283) = (  0.9054541  0.5190441  0.5784382  )
       284           Li  tau( 284) = (  1.0102561  0.8245437  0.5890194  )
       285           Li  tau( 285) = (  0.9027416  0.8609965  0.6135148  )
       286           Li  tau( 286) = (  0.6859631  0.8463575  0.6873643  )
       287           Li  tau( 287) = (  0.6759381  0.6219729  0.6168389  )
       288           Li  tau( 288) = (  0.6692367  0.5049507  0.5436538  )
       289           Li  tau( 289) = (  0.6692113  0.4887761  0.6720505  )
       290           Cr  tau( 290) = (  0.9007493  0.6685259  0.6461621  )
       291           Cr  tau( 291) = (  0.7912274  0.8346074  0.5477375  )
       292           N   tau( 292) = (  0.9807866  0.6393905  0.6647490  )
       293           N   tau( 293) = (  0.8975341  0.6618258  0.6069353  )
       294           N   tau( 294) = (  0.6873422  0.8417214  0.5357013  )
       295           N   tau( 295) = (  0.7863290  0.6852117  0.5326828  )
       296           N   tau( 296) = (  0.8815542  0.9862351  0.5348553  )
       297           N   tau( 297) = (  0.8036148  0.5268677  0.6616530  )
       298           N   tau( 298) = (  0.9043014  0.8221426  0.6596444  )
       299           N   tau( 299) = (  0.7916469  0.8283639  0.5869399  )
       300           O   tau( 300) = (  0.6680381  0.4998925  0.5891678  )

     number of k points=     1  Gaussian smearing, width (Ry)=  0.0147
                       cart. coord. in units 2pi/alat
        k(    1) = (   0.0000000   0.0000000   0.0000000), wk =   2.0000000

                       cryst. coord.
        k(    1) = (   0.0000000   0.0000000   0.0000000), wk =   2.0000000

     Dense  grid:  5457965 G-vectors     FFT dimensions: ( 240, 160, 640)

     Smooth grid:  2970742 G-vectors     FFT dimensions: ( 200, 135, 540)

     Dynamical RAM for                 wfc:    1182.84 MB

     Dynamical RAM for     wfc (w. buffer):    1182.84 MB

     Dynamical RAM for           str. fact:      83.28 MB

     Dynamical RAM for           local pot:       0.00 MB

     Dynamical RAM for          nlocal pot:    3977.76 MB

     Dynamical RAM for                qrad:       7.46 MB

     Dynamical RAM for          rho,v,vnew:     203.09 MB

     Dynamical RAM for               rhoin:      67.70 MB

     Dynamical RAM for            rho*nmix:     333.13 MB

     Dynamical RAM for           G-vectors:      83.74 MB

     Dynamical RAM for          h,s,v(r/c):      63.83 MB

     Dynamical RAM for          <psi|beta>:      17.89 MB

     Dynamical RAM for                 psi:    2365.69 MB

     Dynamical RAM for                hpsi:    2365.69 MB

     Dynamical RAM for                spsi:    2365.69 MB

     Dynamical RAM for      wfcinit/wfcrot:    4336.08 MB

     Dynamical RAM for           addusdens:    7370.47 MB

     Dynamical RAM for          addusforce:   14335.60 MB

     Dynamical RAM for         addusstress:    4184.93 MB

     Estimated static dynamical RAM per process >       5.81 GB

     Estimated max dynamical RAM per process >      20.13 GB

     Estimated total dynamical RAM >      80.52 GB

     Check: negative core charge=   -0.000002

     Initial potential from superposition of free atoms

     starting charge    1292.2742, renormalised to    1392.0000

     negative rho (up, down):  2.535E-02 0.000E+00
     Starting wfcs are 1512 randomized atomic wfcs
     Checking if some PAW data can be deallocated... 

     total cpu time spent up to now is       35.0 secs

     per-process dynamical memory:  1708.6 Mb

     Self-consistent Calculation
[tb_dev] Currently allocated     1.26E+02 Mbytes, locked:    0 /  11
[tb_pin] Currently allocated     0.00E+00 Mbytes, locked:    0 /   0

     iteration #  1     ecut=    90.00 Ry     beta= 0.20
     Davidson diagonalization with overlap

---- Real-time Memory Report at c_bands before calling an iterative solver
         10171 MiB given to the printing process from OS
          1746 MiB allocation reported by mallinfo(arena+hblkhd)
        465831 MiB available memory on the node where the printing process lives
     GPU memory used/free/total (MiB): 16367 / 48601 / 64969
------------------
     ethr =  1.00E-02,  avg # of iterations =  2.0

     negative rho (up, down):  4.060E-02 0.000E+00

     total cpu time spent up to now is       38.8 secs

     total energy              =   -9071.54092406 Ry
     estimated scf accuracy    <     237.12199660 Ry
[tb_dev] Currently allocated     2.41E+01 Mbytes, locked:    0 /   6
[tb_pin] Currently allocated     0.00E+00 Mbytes, locked:    0 /   0

     iteration #  2     ecut=    90.00 Ry     beta= 0.20
     Davidson diagonalization with overlap

---- Real-time Memory Report at c_bands before calling an iterative solver
         10502 MiB given to the printing process from OS
          2013 MiB allocation reported by mallinfo(arena+hblkhd)
        464867 MiB available memory on the node where the printing process lives
     GPU memory used/free/total (MiB): 31249 / 33719 / 64969
------------------
     ethr =  1.00E-02,  avg # of iterations =  4.0

     negative rho (up, down):  6.282E-02 0.000E+00

     total cpu time spent up to now is       42.5 secs

     total energy              =   -9070.27670784 Ry
     estimated scf accuracy    <      43.04343225 Ry
[tb_dev] Currently allocated     2.41E+01 Mbytes, locked:    0 /   6
[tb_pin] Currently allocated     0.00E+00 Mbytes, locked:    0 /   0

     iteration #  3     ecut=    90.00 Ry     beta= 0.20
     Davidson diagonalization with overlap

---- Real-time Memory Report at c_bands before calling an iterative solver
         10537 MiB given to the printing process from OS
         -2047 MiB allocation reported by mallinfo(arena+hblkhd)
        464749 MiB available memory on the node where the printing process lives
     GPU memory used/free/total (MiB): 31273 / 33695 / 64969
------------------
     ethr =  3.09E-03,  avg # of iterations =  7.0

     negative rho (up, down):  4.464E-02 0.000E+00

     total cpu time spent up to now is       48.0 secs

     total energy              =   -9087.17416249 Ry
     estimated scf accuracy    <     484.06105963 Ry
[tb_dev] Currently allocated     2.41E+01 Mbytes, locked:    0 /   6
[tb_pin] Currently allocated     0.00E+00 Mbytes, locked:    0 /   0

     iteration #  4     ecut=    90.00 Ry     beta= 0.20
     Davidson diagonalization with overlap

---- Real-time Memory Report at c_bands before calling an iterative solver
         10540 MiB given to the printing process from OS
         -2024 MiB allocation reported by mallinfo(arena+hblkhd)
        464519 MiB available memory on the node where the printing process lives
     GPU memory used/free/total (MiB): 31273 / 33695 / 64969
------------------
     ethr =  3.09E-03,  avg # of iterations =  2.0

     negative rho (up, down):  3.833E-02 0.000E+00

     total cpu time spent up to now is       51.5 secs

     total energy              =   -9091.50945732 Ry
     estimated scf accuracy    <      97.69360709 Ry
[tb_dev] Currently allocated     2.41E+01 Mbytes, locked:    0 /   6
[tb_pin] Currently allocated     0.00E+00 Mbytes, locked:    0 /   0

     iteration #  5     ecut=    90.00 Ry     beta= 0.20
     Davidson diagonalization with overlap

---- Real-time Memory Report at c_bands before calling an iterative solver
         10564 MiB given to the printing process from OS
         -2000 MiB allocation reported by mallinfo(arena+hblkhd)
        464521 MiB available memory on the node where the printing process lives
     GPU memory used/free/total (MiB): 31447 / 33521 / 64969
------------------
     ethr =  3.09E-03,  avg # of iterations =  2.0

     negative rho (up, down):  2.821E-02 0.000E+00

     total cpu time spent up to now is       54.9 secs

     total energy              =   -9096.37476525 Ry
     estimated scf accuracy    <       5.69447968 Ry
[tb_dev] Currently allocated     2.41E+01 Mbytes, locked:    0 /   6
[tb_pin] Currently allocated     0.00E+00 Mbytes, locked:    0 /   0

     iteration #  6     ecut=    90.00 Ry     beta= 0.20
     Davidson diagonalization with overlap

---- Real-time Memory Report at c_bands before calling an iterative solver
         10587 MiB given to the printing process from OS
         -1977 MiB allocation reported by mallinfo(arena+hblkhd)
        464330 MiB available memory on the node where the printing process lives
     GPU memory used/free/total (MiB): 31447 / 33521 / 64969
------------------
     ethr =  4.09E-04,  avg # of iterations = 15.0

     negative rho (up, down):  2.815E-02 0.000E+00

     total cpu time spent up to now is       60.4 secs

     total energy              =   -9100.87522197 Ry
     estimated scf accuracy    <      74.73017269 Ry
[tb_dev] Currently allocated     2.41E+01 Mbytes, locked:    0 /   6
[tb_pin] Currently allocated     0.00E+00 Mbytes, locked:    0 /   0

     iteration #  7     ecut=    90.00 Ry     beta= 0.20
     Davidson diagonalization with overlap

---- Real-time Memory Report at c_bands before calling an iterative solver
         10620 MiB given to the printing process from OS
         -1965 MiB allocation reported by mallinfo(arena+hblkhd)
        464363 MiB available memory on the node where the printing process lives
     GPU memory used/free/total (MiB): 31629 / 33339 / 64969
------------------
     ethr =  4.09E-04,  avg # of iterations =  4.0

     negative rho (up, down):  3.308E-02 0.000E+00

     total cpu time spent up to now is       64.1 secs

     total energy              =   -9091.34587208 Ry
     estimated scf accuracy    <      49.53475231 Ry
[tb_dev] Currently allocated     2.41E+01 Mbytes, locked:    0 /   6
[tb_pin] Currently allocated     0.00E+00 Mbytes, locked:    0 /   0

     iteration #  8     ecut=    90.00 Ry     beta= 0.20
     Davidson diagonalization with overlap

---- Real-time Memory Report at c_bands before calling an iterative solver
         10645 MiB given to the printing process from OS
         -1939 MiB allocation reported by mallinfo(arena+hblkhd)
        464075 MiB available memory on the node where the printing process lives
     GPU memory used/free/total (MiB): 31629 / 33339 / 64969
------------------
     ethr =  4.09E-04,  avg # of iterations =  7.0

     negative rho (up, down):  3.398E-02 0.000E+00

     total cpu time spent up to now is       69.3 secs

     total energy              =   -9096.05263155 Ry
     estimated scf accuracy    <       1.01271852 Ry
[tb_dev] Currently allocated     2.41E+01 Mbytes, locked:    0 /   6
[tb_pin] Currently allocated     0.00E+00 Mbytes, locked:    0 /   0

     iteration #  9     ecut=    90.00 Ry     beta= 0.20
     Davidson diagonalization with overlap

---- Real-time Memory Report at c_bands before calling an iterative solver
         10669 MiB given to the printing process from OS
         -1916 MiB allocation reported by mallinfo(arena+hblkhd)
        464027 MiB available memory on the node where the printing process lives
     GPU memory used/free/total (MiB): 32413 / 32555 / 64969
------------------
     ethr =  7.28E-05,  avg # of iterations = 17.0

     negative rho (up, down):  3.334E-02 0.000E+00

     total cpu time spent up to now is       74.2 secs

     total energy              =   -9095.90838730 Ry
     estimated scf accuracy    <       1.60973467 Ry
[tb_dev] Currently allocated     2.41E+01 Mbytes, locked:    0 /   6
[tb_pin] Currently allocated     0.00E+00 Mbytes, locked:    0 /   0

     iteration # 10     ecut=    90.00 Ry     beta= 0.20
     Davidson diagonalization with overlap

---- Real-time Memory Report at c_bands before calling an iterative solver
         10692 MiB given to the printing process from OS
         -1892 MiB allocation reported by mallinfo(arena+hblkhd)
        463933 MiB available memory on the node where the printing process lives
     GPU memory used/free/total (MiB): 32413 / 32555 / 64969
------------------
     ethr =  7.28E-05,  avg # of iterations =  2.0

     negative rho (up, down):  3.416E-02 0.000E+00

     total cpu time spent up to now is       77.7 secs

     total energy              =   -9095.98741789 Ry
     estimated scf accuracy    <       0.38028881 Ry
[tb_dev] Currently allocated     2.41E+01 Mbytes, locked:    0 /   6
[tb_pin] Currently allocated     0.00E+00 Mbytes, locked:    0 /   0

     iteration # 11     ecut=    90.00 Ry     beta= 0.20
     Davidson diagonalization with overlap

---- Real-time Memory Report at c_bands before calling an iterative solver
         10692 MiB given to the printing process from OS
         -1892 MiB allocation reported by mallinfo(arena+hblkhd)
        463885 MiB available memory on the node where the printing process lives
     GPU memory used/free/total (MiB): 32413 / 32555 / 64969
------------------
     ethr =  2.73E-05,  avg # of iterations = 35.0

     negative rho (up, down):  3.441E-02 0.000E+00

     total cpu time spent up to now is       84.1 secs

     total energy              =   -9095.98401046 Ry
     estimated scf accuracy    <       0.26814128 Ry
[tb_dev] Currently allocated     2.41E+01 Mbytes, locked:    0 /   6
[tb_pin] Currently allocated     0.00E+00 Mbytes, locked:    0 /   0

     iteration # 12     ecut=    90.00 Ry     beta= 0.20
     Davidson diagonalization with overlap

---- Real-time Memory Report at c_bands before calling an iterative solver
         10692 MiB given to the printing process from OS
         -1892 MiB allocation reported by mallinfo(arena+hblkhd)
        463885 MiB available memory on the node where the printing process lives
     GPU memory used/free/total (MiB): 32413 / 32555 / 64969
------------------
     ethr =  1.93E-05,  avg # of iterations =  2.0

     negative rho (up, down):  3.601E-02 0.000E+00

     total cpu time spent up to now is       87.6 secs

     total energy              =   -9095.97176026 Ry
     estimated scf accuracy    <       0.27410661 Ry
[tb_dev] Currently allocated     2.41E+01 Mbytes, locked:    0 /   6
[tb_pin] Currently allocated     0.00E+00 Mbytes, locked:    0 /   0

     iteration # 13     ecut=    90.00 Ry     beta= 0.20
     Davidson diagonalization with overlap

---- Real-time Memory Report at c_bands before calling an iterative solver
         10692 MiB given to the printing process from OS
         -1892 MiB allocation reported by mallinfo(arena+hblkhd)
        463885 MiB available memory on the node where the printing process lives
     GPU memory used/free/total (MiB): 32413 / 32555 / 64969
------------------
     c_bands:  1 eigenvalues not converged
     ethr =  1.93E-05,  avg # of iterations = 20.0

     negative rho (up, down):  3.842E-02 0.000E+00

     total cpu time spent up to now is       92.8 secs

     total energy              =   -9095.84443052 Ry
     estimated scf accuracy    <       0.40405541 Ry
[tb_dev] Currently allocated     2.41E+01 Mbytes, locked:    0 /   6
[tb_pin] Currently allocated     0.00E+00 Mbytes, locked:    0 /   0

     iteration # 14     ecut=    90.00 Ry     beta= 0.20
     Davidson diagonalization with overlap

---- Real-time Memory Report at c_bands before calling an iterative solver
         10692 MiB given to the printing process from OS
         -1892 MiB allocation reported by mallinfo(arena+hblkhd)
        463885 MiB available memory on the node where the printing process lives
     GPU memory used/free/total (MiB): 32413 / 32555 / 64969
------------------
     ethr =  1.93E-05,  avg # of iterations = 27.0

     negative rho (up, down):  3.774E-02 0.000E+00

     total cpu time spent up to now is      100.0 secs

     total energy              =   -9095.87479311 Ry
     estimated scf accuracy    <       0.83952711 Ry
[tb_dev] Currently allocated     2.41E+01 Mbytes, locked:    0 /   6
[tb_pin] Currently allocated     0.00E+00 Mbytes, locked:    0 /   0

     iteration # 15     ecut=    90.00 Ry     beta= 0.20
     Davidson diagonalization with overlap

---- Real-time Memory Report at c_bands before calling an iterative solver
         10692 MiB given to the printing process from OS
         -1892 MiB allocation reported by mallinfo(arena+hblkhd)
        463884 MiB available memory on the node where the printing process lives
     GPU memory used/free/total (MiB): 32609 / 32359 / 64969
------------------
     ethr =  1.93E-05,  avg # of iterations =  2.0

     negative rho (up, down):  3.831E-02 0.000E+00

     total cpu time spent up to now is      103.7 secs

     total energy              =   -9095.95547347 Ry
     estimated scf accuracy    <       0.01936432 Ry
[tb_dev] Currently allocated     2.41E+01 Mbytes, locked:    0 /   6
[tb_pin] Currently allocated     0.00E+00 Mbytes, locked:    0 /   0

     iteration # 16     ecut=    90.00 Ry     beta= 0.20
     Davidson diagonalization with overlap

---- Real-time Memory Report at c_bands before calling an iterative solver
         10692 MiB given to the printing process from OS
         -1892 MiB allocation reported by mallinfo(arena+hblkhd)
        463884 MiB available memory on the node where the printing process lives
     GPU memory used/free/total (MiB): 32609 / 32359 / 64969
------------------
     c_bands:  4 eigenvalues not converged
     ethr =  1.39E-06,  avg # of iterations = 20.0

     negative rho (up, down):  3.879E-02 0.000E+00

     total cpu time spent up to now is      109.1 secs

     total energy              =   -9095.95807622 Ry
     estimated scf accuracy    <       0.01768610 Ry
[tb_dev] Currently allocated     2.41E+01 Mbytes, locked:    0 /   6
[tb_pin] Currently allocated     0.00E+00 Mbytes, locked:    0 /   0

     iteration # 17     ecut=    90.00 Ry     beta= 0.20
     Davidson diagonalization with overlap

---- Real-time Memory Report at c_bands before calling an iterative solver
         10692 MiB given to the printing process from OS
         -1892 MiB allocation reported by mallinfo(arena+hblkhd)
        463884 MiB available memory on the node where the printing process lives
     GPU memory used/free/total (MiB): 32609 / 32359 / 64969
------------------
     ethr =  1.27E-06,  avg # of iterations = 16.0

     negative rho (up, down):  3.917E-02 0.000E+00

     total cpu time spent up to now is      113.1 secs

     total energy              =   -9095.95838180 Ry
     estimated scf accuracy    <       0.00313926 Ry
[tb_dev] Currently allocated     2.41E+01 Mbytes, locked:    0 /   6
[tb_pin] Currently allocated     0.00E+00 Mbytes, locked:    0 /   0

     iteration # 18     ecut=    90.00 Ry     beta= 0.20
     Davidson diagonalization with overlap

---- Real-time Memory Report at c_bands before calling an iterative solver
         10704 MiB given to the printing process from OS
         -1881 MiB allocation reported by mallinfo(arena+hblkhd)
        463920 MiB available memory on the node where the printing process lives
     GPU memory used/free/total (MiB): 32609 / 32359 / 64969
------------------
     ethr =  2.26E-07,  avg # of iterations =  5.0

     negative rho (up, down):  3.947E-02 0.000E+00

     total cpu time spent up to now is      116.9 secs

     total energy              =   -9095.95870811 Ry
     estimated scf accuracy    <       0.00096572 Ry
[tb_dev] Currently allocated     2.41E+01 Mbytes, locked:    0 /   6
[tb_pin] Currently allocated     0.00E+00 Mbytes, locked:    0 /   0

     iteration # 19     ecut=    90.00 Ry     beta= 0.20
     Davidson diagonalization with overlap

---- Real-time Memory Report at c_bands before calling an iterative solver
         10704 MiB given to the printing process from OS
         -1881 MiB allocation reported by mallinfo(arena+hblkhd)
        464063 MiB available memory on the node where the printing process lives
     GPU memory used/free/total (MiB): 32609 / 32359 / 64969
------------------
     ethr =  6.94E-08,  avg # of iterations =  2.0

     negative rho (up, down):  3.966E-02 0.000E+00

     total cpu time spent up to now is      120.7 secs

     total energy              =   -9095.95877490 Ry
     estimated scf accuracy    <       0.00048249 Ry
[tb_dev] Currently allocated     2.41E+01 Mbytes, locked:    0 /   6
[tb_pin] Currently allocated     0.00E+00 Mbytes, locked:    0 /   0

     iteration # 20     ecut=    90.00 Ry     beta= 0.20
     Davidson diagonalization with overlap

---- Real-time Memory Report at c_bands before calling an iterative solver
         10704 MiB given to the printing process from OS
         -1881 MiB allocation reported by mallinfo(arena+hblkhd)
        463873 MiB available memory on the node where the printing process lives
     GPU memory used/free/total (MiB): 32609 / 32359 / 64969
------------------
     ethr =  3.47E-08,  avg # of iterations =  2.0

     negative rho (up, down):  3.979E-02 0.000E+00

     total cpu time spent up to now is      124.2 secs

     total energy              =   -9095.95879030 Ry
     estimated scf accuracy    <       0.00015164 Ry
[tb_dev] Currently allocated     2.41E+01 Mbytes, locked:    0 /   6
[tb_pin] Currently allocated     0.00E+00 Mbytes, locked:    0 /   0

     iteration # 21     ecut=    90.00 Ry     beta= 0.20
     Davidson diagonalization with overlap

---- Real-time Memory Report at c_bands before calling an iterative solver
         10704 MiB given to the printing process from OS
         -1881 MiB allocation reported by mallinfo(arena+hblkhd)
        463873 MiB available memory on the node where the printing process lives
     GPU memory used/free/total (MiB): 32609 / 32359 / 64969
------------------
     ethr =  1.09E-08,  avg # of iterations =  4.0

     negative rho (up, down):  3.987E-02 0.000E+00

     total cpu time spent up to now is      128.0 secs

     total energy              =   -9095.95880699 Ry
     estimated scf accuracy    <       0.00006408 Ry
[tb_dev] Currently allocated     2.41E+01 Mbytes, locked:    0 /   6
[tb_pin] Currently allocated     0.00E+00 Mbytes, locked:    0 /   0

     iteration # 22     ecut=    90.00 Ry     beta= 0.20
     Davidson diagonalization with overlap

---- Real-time Memory Report at c_bands before calling an iterative solver
         10704 MiB given to the printing process from OS
         -1881 MiB allocation reported by mallinfo(arena+hblkhd)
        463873 MiB available memory on the node where the printing process lives
     GPU memory used/free/total (MiB): 32609 / 32359 / 64969
------------------
     ethr =  4.60E-09,  avg # of iterations =  2.0

     negative rho (up, down):  3.994E-02 0.000E+00

     total cpu time spent up to now is      131.6 secs

     total energy              =   -9095.95881284 Ry
     estimated scf accuracy    <       0.00002365 Ry
[tb_dev] Currently allocated     2.41E+01 Mbytes, locked:    0 /   6
[tb_pin] Currently allocated     0.00E+00 Mbytes, locked:    0 /   0

     iteration # 23     ecut=    90.00 Ry     beta= 0.20
     Davidson diagonalization with overlap

---- Real-time Memory Report at c_bands before calling an iterative solver
         10704 MiB given to the printing process from OS
         -1881 MiB allocation reported by mallinfo(arena+hblkhd)
        464064 MiB available memory on the node where the printing process lives
     GPU memory used/free/total (MiB): 32609 / 32359 / 64969
------------------
     ethr =  1.70E-09,  avg # of iterations =  4.0

     negative rho (up, down):  3.997E-02 0.000E+00

     total cpu time spent up to now is      135.6 secs

     total energy              =   -9095.95881701 Ry
     estimated scf accuracy    <       0.00000694 Ry
[tb_dev] Currently allocated     2.41E+01 Mbytes, locked:    0 /   6
[tb_pin] Currently allocated     0.00E+00 Mbytes, locked:    0 /   0

     iteration # 24     ecut=    90.00 Ry     beta= 0.20
     Davidson diagonalization with overlap

---- Real-time Memory Report at c_bands before calling an iterative solver
         10704 MiB given to the printing process from OS
         -1881 MiB allocation reported by mallinfo(arena+hblkhd)
        463873 MiB available memory on the node where the printing process lives
     GPU memory used/free/total (MiB): 32609 / 32359 / 64969
------------------
     ethr =  4.99E-10,  avg # of iterations =  4.0

     negative rho (up, down):  3.999E-02 0.000E+00

     total cpu time spent up to now is      139.4 secs

     total energy              =   -9095.95881784 Ry
     estimated scf accuracy    <       0.00000355 Ry
[tb_dev] Currently allocated     2.41E+01 Mbytes, locked:    0 /   6
[tb_pin] Currently allocated     0.00E+00 Mbytes, locked:    0 /   0

     iteration # 25     ecut=    90.00 Ry     beta= 0.20
     Davidson diagonalization with overlap

---- Real-time Memory Report at c_bands before calling an iterative solver
         10704 MiB given to the printing process from OS
         -1881 MiB allocation reported by mallinfo(arena+hblkhd)
        463873 MiB available memory on the node where the printing process lives
     GPU memory used/free/total (MiB): 32609 / 32359 / 64969
------------------
     ethr =  2.55E-10,  avg # of iterations =  2.0

     negative rho (up, down):  4.002E-02 0.000E+00

     total cpu time spent up to now is      142.9 secs

     total energy              =   -9095.95881794 Ry
     estimated scf accuracy    <       0.00000186 Ry
[tb_dev] Currently allocated     2.41E+01 Mbytes, locked:    0 /   6
[tb_pin] Currently allocated     0.00E+00 Mbytes, locked:    0 /   0

     iteration # 26     ecut=    90.00 Ry     beta= 0.20
     Davidson diagonalization with overlap

---- Real-time Memory Report at c_bands before calling an iterative solver
         10704 MiB given to the printing process from OS
         -1881 MiB allocation reported by mallinfo(arena+hblkhd)
        463862 MiB available memory on the node where the printing process lives
     GPU memory used/free/total (MiB): 32609 / 32359 / 64969
------------------
     ethr =  1.34E-10,  avg # of iterations =  5.0

     negative rho (up, down):  4.003E-02 0.000E+00

     total cpu time spent up to now is      147.0 secs

     total energy              =   -9095.95881835 Ry
     estimated scf accuracy    <       0.00000062 Ry
[tb_dev] Currently allocated     2.41E+01 Mbytes, locked:    0 /   6
[tb_pin] Currently allocated     0.00E+00 Mbytes, locked:    0 /   0

     iteration # 27     ecut=    90.00 Ry     beta= 0.20
     Davidson diagonalization with overlap

---- Real-time Memory Report at c_bands before calling an iterative solver
         10704 MiB given to the printing process from OS
         -1881 MiB allocation reported by mallinfo(arena+hblkhd)
        463862 MiB available memory on the node where the printing process lives
     GPU memory used/free/total (MiB): 32609 / 32359 / 64969
------------------
     ethr =  4.48E-11,  avg # of iterations =  2.0

     negative rho (up, down):  4.004E-02 0.000E+00

     total cpu time spent up to now is      150.6 secs

     total energy              =   -9095.95881842 Ry
     estimated scf accuracy    <       0.00000020 Ry
[tb_dev] Currently allocated     2.41E+01 Mbytes, locked:    0 /   6
[tb_pin] Currently allocated     0.00E+00 Mbytes, locked:    0 /   0

     iteration # 28     ecut=    90.00 Ry     beta= 0.20
     Davidson diagonalization with overlap

---- Real-time Memory Report at c_bands before calling an iterative solver
         10704 MiB given to the printing process from OS
         -1881 MiB allocation reported by mallinfo(arena+hblkhd)
        463862 MiB available memory on the node where the printing process lives
     GPU memory used/free/total (MiB): 32609 / 32359 / 64969
------------------
     ethr =  1.42E-11,  avg # of iterations =  4.0

     negative rho (up, down):  4.006E-02 0.000E+00

     total cpu time spent up to now is      154.2 secs

     End of self-consistent calculation

          k = 0.0000 0.0000 0.0000 (371318 PWs)   bands (ev):

   -72.3159 -72.1620 -72.1277 -72.1091 -72.1031 -72.0585 -71.9974 -71.9853
   -71.9847 -71.9772 -71.9542 -71.9252 -71.9020 -71.8900 -71.8867 -71.8782
   -71.8723 -71.8449 -71.8059 -71.8040 -71.7841 -71.7417 -71.7106 -71.5405
   -45.1611 -45.1480 -45.1160 -45.0639 -45.0579 -45.0464 -45.0265 -44.9723
   -44.9594 -44.9337 -44.9024 -44.8662 -44.8295 -44.8216 -44.8051 -44.8021
   -44.7991 -44.7986 -44.7945 -44.7866 -44.7833 -44.7802 -44.7706 -44.7616
   -44.7480 -44.7478 -44.7314 -44.7306 -44.7259 -44.7253 -44.7081 -44.7078
   -44.7073 -44.7055 -44.6945 -44.6902 -44.6872 -44.6779 -44.6738 -44.6726
   -44.6530 -44.6494 -44.6493 -44.6346 -44.6342 -44.6303 -44.6151 -44.6149
   -44.6122 -44.5886 -44.5693 -44.5571 -44.5525 -44.5396 -44.5329 -44.5302
   -44.5206 -44.5179 -44.5073 -44.5035 -44.4997 -44.4956 -44.4805 -44.4763
[...]
     atom  143 type  1   force =    -0.00001567   -0.00000706   -0.00008552
     atom  144 type  1   force =    -0.00000994    0.00001768   -0.00002017
     atom  145 type  1   force =     0.00001522   -0.00001707   -0.00003235
     atom  146 type  1   force =     0.00002972    0.00001888   -0.00001264
     atom  147 type  1   force =    -0.00003624   -0.00003476   -0.00000947
     atom  148 type  1   force =    -0.00002956    0.00004278    0.00001505
     atom  149 type  1   force =     0.00001561    0.00001396    0.00001747
     atom  150 type  4   force =     0.00003642    0.00000150   -0.00001754
     atom  151 type  2   force =     0.00000447    0.00000309    0.00001549
     atom  152 type  2   force =    -0.00000195   -0.00000569    0.00001433
     atom  153 type  2   force =    -0.00001083    0.00000525    0.00001960
     atom  154 type  2   force =     0.00000984    0.00001506    0.00000064
     atom  155 type  2   force =    -0.00000307    0.00000663   -0.00000028
     atom  156 type  2   force =     0.00000417   -0.00000331   -0.00000267
     atom  157 type  2   force =    -0.00000745    0.00001211   -0.00002579
     atom  158 type  2   force =     0.00000145   -0.00001063   -0.00000928
     atom  159 type  2   force =     0.00001257    0.00000331   -0.00001217
     atom  160 type  2   force =    -0.00001253    0.00000988   -0.00001135
     atom  161 type  2   force =    -0.00000731   -0.00001273   -0.00000285
     atom  162 type  2   force =     0.00001030    0.00000596   -0.00001760
     atom  163 type  2   force =     0.00000665   -0.00000070   -0.00000678
     atom  164 type  2   force =     0.00000281   -0.00000269   -0.00001066
     atom  165 type  3   force =     0.00000007    0.00001289   -0.00007049
     atom  166 type  3   force =     0.00006223   -0.00000059    0.00002185
     atom  167 type  1   force =     0.00002392   -0.00000145   -0.00000929
     atom  168 type  1   force =     0.00000851    0.00000631   -0.00005092
     atom  169 type  1   force =     0.00000185    0.00000335    0.00001482
     atom  170 type  1   force =     0.00000785    0.00000110    0.00003886
     atom  171 type  1   force =    -0.00000404   -0.00001068    0.00004260
     atom  172 type  1   force =    -0.00001495   -0.00001090   -0.00001473
     atom  173 type  1   force =    -0.00000971    0.00003304   -0.00001422
     atom  174 type  1   force =     0.00001635    0.00000059   -0.00002898
     atom  175 type  4   force =    -0.00000159   -0.00001915   -0.00002757
     atom  176 type  2   force =     0.00000550   -0.00000006   -0.00000731
     atom  177 type  2   force =    -0.00000576    0.00000922   -0.00000219
     atom  178 type  2   force =    -0.00000752   -0.00000304   -0.00000731
     atom  179 type  2   force =     0.00000731    0.00000317   -0.00000955
     atom  180 type  2   force =    -0.00000388   -0.00000013   -0.00000722
     atom  181 type  2   force =     0.00001020   -0.00001418   -0.00000615
     atom  182 type  2   force =    -0.00000152    0.00000055   -0.00001077
     atom  183 type  2   force =     0.00000191   -0.00000357   -0.00000680
     atom  184 type  2   force =    -0.00000526    0.00000120   -0.00001211
     atom  185 type  2   force =     0.00000289    0.00000797   -0.00000549
     atom  186 type  2   force =     0.00001175   -0.00000280    0.00000057
     atom  187 type  2   force =    -0.00000037   -0.00000673   -0.00000761
     atom  188 type  2   force =     0.00000586    0.00000430   -0.00000049
     atom  189 type  2   force =     0.00000063   -0.00000040   -0.00000452
     atom  190 type  3   force =    -0.00001606    0.00000495   -0.00000137
     atom  191 type  3   force =     0.00004584    0.00000175   -0.00007172
     atom  192 type  1   force =     0.00000429   -0.00000353   -0.00001713
     atom  193 type  1   force =    -0.00000674   -0.00000820   -0.00003766
     atom  194 type  1   force =     0.00003081    0.00000404   -0.00001077
     atom  195 type  1   force =    -0.00000327    0.00002529   -0.00000250
     atom  196 type  1   force =     0.00000946   -0.00001683   -0.00001782
     atom  197 type  1   force =    -0.00001532   -0.00001583   -0.00002547
     atom  198 type  1   force =    -0.00000395    0.00001009   -0.00002501
     atom  199 type  1   force =     0.00000547    0.00000341   -0.00003243
     atom  200 type  4   force =     0.00000153    0.00000645   -0.00001705
     atom  201 type  2   force =    -0.00000187   -0.00000833    0.00001620
     atom  202 type  2   force =    -0.00000170    0.00000382    0.00001452
     atom  203 type  2   force =     0.00000975    0.00000593    0.00001080
     atom  204 type  2   force =     0.00000023    0.00000102   -0.00000132
     atom  205 type  2   force =    -0.00000607   -0.00000161   -0.00000311
     atom  206 type  2   force =     0.00000629   -0.00000452   -0.00000649
     atom  207 type  2   force =    -0.00001239    0.00000416   -0.00000254
     atom  208 type  2   force =     0.00000119   -0.00001394   -0.00001350
     atom  209 type  2   force =     0.00000779    0.00001239   -0.00000824
     atom  210 type  2   force =    -0.00001229    0.00001392   -0.00000853
     atom  211 type  2   force =    -0.00000436   -0.00001925   -0.00000622
     atom  212 type  2   force =     0.00001324    0.00000681   -0.00000466
     atom  213 type  2   force =    -0.00000593   -0.00000201   -0.00000335
     atom  214 type  2   force =    -0.00000071    0.00000234   -0.00000970
     atom  215 type  3   force =    -0.00005385   -0.00002753   -0.00005267
     atom  216 type  3   force =    -0.00002064   -0.00002013    0.00001898
     atom  217 type  1   force =     0.00003676   -0.00001255   -0.00000382
     atom  218 type  1   force =    -0.00001523    0.00000315   -0.00006164
     atom  219 type  1   force =    -0.00003414   -0.00000959    0.00000556
     atom  220 type  1   force =     0.00001147   -0.00001697    0.00000673
     atom  221 type  1   force =     0.00002553    0.00002688   -0.00000834
     atom  222 type  1   force =    -0.00003696   -0.00003750   -0.00000309
     atom  223 type  1   force =    -0.00004751    0.00003594   -0.00001232
     atom  224 type  1   force =    -0.00000743   -0.00000550    0.00001235
     atom  225 type  4   force =     0.00000243   -0.00000413   -0.00001318
     atom  226 type  2   force =     0.00000083   -0.00001038   -0.00001155
     atom  227 type  2   force =    -0.00001123    0.00000336   -0.00000981
     atom  228 type  2   force =    -0.00000769   -0.00000097   -0.00000629
     atom  229 type  2   force =     0.00000902    0.00000029    0.00000014
     atom  230 type  2   force =    -0.00000882    0.00000538   -0.00000337
     atom  231 type  2   force =     0.00000452   -0.00000844   -0.00000434
     atom  232 type  2   force =    -0.00001409   -0.00000496   -0.00000801
     atom  233 type  2   force =     0.00001369   -0.00000438    0.00000185
     atom  234 type  2   force =     0.00000596    0.00001070   -0.00000113
     atom  235 type  2   force =    -0.00001076    0.00001330   -0.00000892
     atom  236 type  2   force =    -0.00001055   -0.00001685   -0.00001670
     atom  237 type  2   force =     0.00002254   -0.00000383   -0.00001815
     atom  238 type  2   force =     0.00000797   -0.00000646   -0.00001133
     atom  239 type  2   force =     0.00000673   -0.00000871   -0.00001207
     atom  240 type  3   force =    -0.00000488    0.00000505    0.00002400
     atom  241 type  3   force =    -0.00004627    0.00000146   -0.00003818
     atom  242 type  1   force =     0.00002753    0.00000842    0.00001429
     atom  243 type  1   force =     0.00000534   -0.00000275   -0.00004432
     atom  244 type  1   force =    -0.00000865    0.00000600   -0.00002640
     atom  245 type  1   force =    -0.00001430   -0.00001552   -0.00002867
     atom  246 type  1   force =     0.00000524    0.00000826   -0.00002126
     atom  247 type  1   force =    -0.00000321   -0.00001657   -0.00000048
     atom  248 type  1   force =    -0.00000903    0.00002908    0.00000102
     atom  249 type  1   force =    -0.00001645   -0.00000478   -0.00001780
     atom  250 type  4   force =    -0.00001855    0.00001086   -0.00004059
     atom  251 type  2   force =     0.00000180   -0.00001222    0.00001408
     atom  252 type  2   force =    -0.00000117    0.00000352    0.00000939
     atom  253 type  2   force =    -0.00000330    0.00000424    0.00001167
     atom  254 type  2   force =    -0.00000336    0.00000556   -0.00000276
     atom  255 type  2   force =    -0.00000812   -0.00000649   -0.00000365
     atom  256 type  2   force =     0.00000635    0.00000132   -0.00000304
     atom  257 type  2   force =    -0.00001406    0.00000693   -0.00000969
     atom  258 type  2   force =     0.00000481   -0.00001973   -0.00001003
     atom  259 type  2   force =     0.00000835    0.00001095   -0.00000403
     atom  260 type  2   force =    -0.00001063    0.00000595   -0.00001084
     atom  261 type  2   force =    -0.00000520   -0.00001373   -0.00001301
     atom  262 type  2   force =     0.00001206    0.00000235   -0.00000917
     atom  263 type  2   force =     0.00000040   -0.00000429   -0.00000534
     atom  264 type  2   force =    -0.00000114   -0.00000049   -0.00001110
     atom  265 type  3   force =    -0.00004664   -0.00000438   -0.00007383
     atom  266 type  3   force =    -0.00002112   -0.00000994    0.00004028
     atom  267 type  1   force =     0.00002357   -0.00000072   -0.00001439
     atom  268 type  1   force =    -0.00001311    0.00000181   -0.00003294
     atom  269 type  1   force =    -0.00003352   -0.00000844    0.00002540
     atom  270 type  1   force =     0.00000304   -0.00002859    0.00000372
     atom  271 type  1   force =     0.00002190    0.00003580   -0.00000304
     atom  272 type  1   force =    -0.00001509   -0.00002798   -0.00001655
     atom  273 type  1   force =    -0.00001800    0.00002139   -0.00002603
     atom  274 type  1   force =    -0.00000697   -0.00000131    0.00000841
     atom  275 type  4   force =    -0.00000233   -0.00001771   -0.00002616
     atom  276 type  2   force =    -0.00000191   -0.00001004   -0.00001122
     atom  277 type  2   force =    -0.00000090    0.00000599   -0.00000844
     atom  278 type  2   force =    -0.00000427   -0.00000799   -0.00000783
     atom  279 type  2   force =    -0.00001337    0.00000102   -0.00000778
     atom  280 type  2   force =    -0.00001348   -0.00000192   -0.00000366
     atom  281 type  2   force =     0.00000413    0.00000024   -0.00000430
     atom  282 type  2   force =    -0.00000964    0.00000173   -0.00000691
     atom  283 type  2   force =     0.00000848   -0.00001161   -0.00000897
     atom  284 type  2   force =     0.00000892    0.00001052   -0.00000799
     atom  285 type  2   force =    -0.00000876    0.00001535   -0.00001432
     atom  286 type  2   force =    -0.00000046   -0.00000201   -0.00000015
     atom  287 type  2   force =     0.00000483   -0.00000232   -0.00000824
     atom  288 type  2   force =     0.00000131   -0.00000511   -0.00000883
     atom  289 type  2   force =    -0.00000414    0.00000554   -0.00000435
     atom  290 type  3   force =     0.00001368    0.00001138    0.00002426
     atom  291 type  3   force =    -0.00002808   -0.00001790   -0.00005783
     atom  292 type  1   force =     0.00002690   -0.00001933    0.00001232
     atom  293 type  1   force =     0.00000345    0.00001092   -0.00004248
     atom  294 type  1   force =    -0.00003318   -0.00000187   -0.00002791
     atom  295 type  1   force =    -0.00001031   -0.00001969   -0.00003848
     atom  296 type  1   force =     0.00000308    0.00001028   -0.00003038
     atom  297 type  1   force =    -0.00000286   -0.00003526    0.00001309
     atom  298 type  1   force =    -0.00002082    0.00003746    0.00001113
     atom  299 type  1   force =     0.00000541   -0.00000471    0.00000424
     atom  300 type  4   force =    -0.00000472   -0.00000597   -0.00002800

     Total force =     1.007590     Total SCF correction =     0.000570


     Computing stress (Cartesian axis) and pressure


     negative rho (up, down):  4.006E-02 0.000E+00
          total   stress  (Ry/bohr**3)                   (kbar)     P=        1.94
   0.00003943  -0.00000770   0.00000707            5.80       -1.13        1.04
  -0.00000770   0.00005195   0.00000182           -1.13        7.64        0.27
   0.00000707   0.00000182  -0.00005181            1.04        0.27       -7.62

     kinetic stress (kbar)   5332.93     -0.25      2.45
                               -0.25   5332.75      0.67
                                2.45      0.67   5320.18

     local   stress (kbar)-640668.38    136.75    197.79
                              136.75-640882.38     -9.08
                              197.79     -9.08 634345.37

     nonloc. stress (kbar)    957.29      0.16      0.22
                                0.16    957.96      0.16
                                0.22      0.16    954.70

     hartree stress (kbar) 320961.17    -48.99    -79.33
                              -48.99 321044.17     -1.66
                              -79.33     -1.66-315107.76

     exc-cor stress (kbar)  -1263.50     -0.19     -0.15
                               -0.19  -1263.31      0.12
                               -0.15      0.12  -1265.49

     corecor stress (kbar)   -292.84      0.01     -0.00
                                0.01   -292.86     -0.01
                               -0.00     -0.01   -292.71

     ewald   stress (kbar) 314979.13    -88.61   -119.93
                              -88.61 315111.31     10.07
                             -119.93     10.07-323961.91

     hubbard stress (kbar)      0.00      0.00      0.00
                                0.00      0.00      0.00
                                0.00      0.00      0.00

     DFT-D   stress (kbar)      0.00      0.00      0.00
                                0.00      0.00      0.00
                                0.00      0.00      0.00

     XDM     stress (kbar)      0.00      0.00      0.00
                                0.00      0.00      0.00
                                0.00      0.00      0.00

     dft-nl  stress (kbar)      0.00      0.00      0.00
                                0.00      0.00      0.00
                                0.00      0.00      0.00

     TS-vdW  stress (kbar)      0.00      0.00      0.00
                                0.00      0.00      0.00
                                0.00      0.00      0.00

     MDB     stress (kbar)      0.00      0.00      0.00
                                0.00      0.00      0.00
                                0.00      0.00      0.00

     3D-RISM stress (kbar)      0.00      0.00      0.00
                                0.00      0.00      0.00
                                0.00      0.00      0.00


     Writing all to output data dir ./tmp/pwscf.save/
 
     init_run     :     29.64s CPU     34.38s WALL (       1 calls)
     electrons    :    112.87s CPU    119.55s WALL (       1 calls)
     forces       :      3.18s CPU      3.29s WALL (       1 calls)
     stress       :     81.03s CPU     83.48s WALL (       1 calls)

     Called by init_run:
     wfcinit      :      3.57s CPU      5.41s WALL (       1 calls)
                                        5.41s GPU  (       1 calls)
     wfcinit:atom :      0.01s CPU      0.01s WALL (       1 calls)
                                        0.01s GPU  (       1 calls)
     wfcinit:wfcr :      1.27s CPU      2.43s WALL (       1 calls)
                                        2.43s GPU  (       1 calls)
     potinit      :     16.17s CPU     16.43s WALL (       1 calls)
     hinit0       :      7.59s CPU      7.84s WALL (       1 calls)

     Called by electrons:
     c_bands      :     72.86s CPU     74.67s WALL (      28 calls)
     sum_band     :     15.34s CPU     15.85s WALL (      28 calls)
     v_of_rho     :      3.08s CPU      3.21s WALL (      29 calls)
     v_h          :      1.68s CPU      1.76s WALL (      29 calls)
     v_xc         :      1.53s CPU      1.58s WALL (      31 calls)
     newd         :      2.27s CPU      4.39s WALL (      29 calls)
                                        4.39s GPU  (      29 calls)
     PAW_pot      :      3.15s CPU      3.17s WALL (      29 calls)
     mix_rho      :      7.71s CPU      7.93s WALL (      28 calls)

     Called by c_bands:
     init_us_2    :      0.44s CPU      0.67s WALL (      57 calls)
     init_us_2:gp :      0.44s CPU      0.67s WALL (      57 calls)
     regterg      :     63.81s CPU     65.40s WALL (      30 calls)

     Called by sum_band:
     sum_band:wei :      0.01s CPU      0.01s WALL (      28 calls)
                                        0.01s GPU  (      28 calls)
     sum_band:loo :     12.06s CPU     12.50s WALL (      28 calls)
                                       12.50s GPU  (      28 calls)
     sum_band:buf :      1.80s CPU      1.83s WALL (      28 calls)
                                        1.83s GPU  (      28 calls)
     sum_band:ini :      0.22s CPU      0.51s WALL (      28 calls)
                                        0.50s GPU  (      28 calls)
     sum_band:cal :      1.99s CPU      2.06s WALL (      28 calls)
                                        2.06s GPU  (      28 calls)
     sum_band:bec :      0.20s CPU      0.20s WALL (      28 calls)
                                        0.20s GPU  (      28 calls)
     addusdens    :      2.00s CPU      2.04s WALL (      28 calls)
                                        2.04s GPU  (      28 calls)
     addusd:skk   :      0.43s CPU      0.43s WALL (     112 calls)
                                        0.43s GPU  (     112 calls)

     Called by *egterg:
     rdiaghg      :      6.31s CPU      6.47s WALL (     250 calls)
                                        6.47s GPU  (     250 calls)
     regterg:over :      3.93s CPU      3.99s WALL (     220 calls)
     regterg:upda :      2.16s CPU      2.21s WALL (     220 calls)
     regterg:last :      4.52s CPU      4.53s WALL (      69 calls)
     h_psi        :     40.49s CPU     42.71s WALL (     251 calls)
                                       42.71s GPU  (     251 calls)
     s_psi        :      1.11s CPU      5.11s WALL (     251 calls)
                                        4.97s GPU  (     251 calls)
     g_psi        :      0.00s CPU      0.21s WALL (     220 calls)
                                        0.21s GPU  (     220 calls)

     Called by h_psi:
     h_psi:calbec :      5.93s CPU      6.17s WALL (     251 calls)
                                        6.17s GPU  (     251 calls)
     vloc_psi     :     29.94s CPU     31.32s WALL (     251 calls)
                                       31.31s GPU  (     251 calls)
     add_vuspsi   :      0.50s CPU      5.01s WALL (     251 calls)
                                        4.99s GPU  (     251 calls)

     General routines
     calbec       :      8.37s CPU      8.73s WALL (     284 calls)
     fft          :      5.56s CPU      7.35s WALL (     337 calls)
                                        0.73s GPU  (     308 calls)
     ffts         :      2.82s CPU      3.39s WALL (      57 calls)
                                        0.05s GPU  (      28 calls)
     fftw         :     17.87s CPU     30.20s WALL (   16098 calls)
                                       29.99s GPU  (   16098 calls)
     interpolate  :      8.96s CPU     11.17s WALL (      29 calls)
 
     Parallel routines

     PAW routines
     PAW_pot      :      3.15s CPU      3.17s WALL (      29 calls)
 
     PWSCF        :   3m49.08s CPU   4m 8.30s WALL

 
   This run was terminated on:  14:20:57  30Dec2023            

=------------------------------------------------------------------------------=
   JOB DONE.
=------------------------------------------------------------------------------=
