ITEM: TIMESTEP
0
ITEM: NUMBER OF ATOMS
130
ITEM: BOX BOUNDS xy xz yz pp pp ff
0.0000000000000000e+00 1.9144916100600000e+01 6.3816387001999999e+00
0.0000000000000000e+00 1.1053322464300001e+01 0.0000000000000000e+00
0.0000000000000000e+00 3.2336937887100000e+01 0.0000000000000000e+00
ITEM: ATOMS id type xs ys zs
2 1 0.133333 0.133333 0.309244
3 1 0.333333 0.133333 0.309244
4 1 0.533333 0.133333 0.309244
7 1 0.133333 0.333333 0.309244
8 1 0.333333 0.333333 0.309244
9 1 0.533333 0.333333 0.309244
12 1 0.133333 0.533333 0.309244
13 1 0.333333 0.533333 0.309244
17 1 0.133333 0.733333 0.309244
18 1 0.333333 0.733333 0.309244
22 1 0.133333 0.933333 0.309244
26 1 0 0 0.373698
27 1 0.2 0 0.373698
28 1 0.4 0 0.373698
29 1 0.6 0 0.373698
31 1 1.26239e-10 0.2 0.373698
32 1 0.2 0.2 0.373698
33 1 0.4 0.2 0.373698
34 1 0.6 0.2 0.373698
37 1 0.2 0.4 0.373698
38 1 0.4 0.4 0.373698
42 1 0.2 0.6 0.373698
43 1 0.4 0.6 0.373698
46 1 5.26026e-11 0.8 0.373698
47 1 0.2 0.8 0.373698
51 1 0.0666667 0.0666667 0.438151
52 1 0.266667 0.0666667 0.438151
53 1 0.466667 0.0666667 0.438151
54 1 0.666667 0.0666667 0.438151
56 1 0.0666667 0.266667 0.438151
57 1 0.266667 0.266667 0.438151
58 1 0.466667 0.266667 0.438151
61 1 0.0666667 0.466667 0.438151
62 1 0.266667 0.466667 0.438151
63 1 0.466667 0.466667 0.438151
66 1 0.0666667 0.666667 0.438151
67 1 0.266667 0.666667 0.438151
71 1 0.0666667 0.866667 0.438151
72 1 0.266667 0.866667 0.438151
1 1 0.933333 0.133333 0.309244
5 1 0.733333 0.133333 0.309244
6 1 0.933333 0.333333 0.309244
10 1 0.733333 0.333333 0.309244
11 1 0.933333 0.533333 0.309244
14 1 0.533333 0.533333 0.309244
15 1 0.733333 0.533333 0.309244
16 1 0.933333 0.733333 0.309244
19 1 0.533333 0.733333 0.309244
20 1 0.733333 0.733333 0.309244
21 1 0.933333 0.933333 0.309244
23 1 0.333333 0.933333 0.309244
24 1 0.533333 0.933333 0.309244
25 1 0.733333 0.933333 0.309244
30 1 0.8 0 0.373698
35 1 0.8 0.2 0.373698
36 1 1 0.4 0.373698
39 1 0.6 0.4 0.373698
40 1 0.8 0.4 0.373698
41 1 1 0.6 0.373698
44 1 0.6 0.6 0.373698
45 1 0.8 0.6 0.373698
48 1 0.4 0.8 0.373698
49 1 0.6 0.8 0.373698
50 1 0.8 0.8 0.373698
55 1 0.866667 0.0666667 0.438151
59 1 0.666667 0.266667 0.438151
60 1 0.866667 0.266667 0.438151
64 1 0.666667 0.466667 0.438151
65 1 0.866667 0.466667 0.438151
68 1 0.466667 0.666667 0.438151
69 1 0.666667 0.666667 0.438151
70 1 0.866667 0.666667 0.438151
73 1 0.466667 0.866667 0.438151
74 1 0.666667 0.866667 0.438151
75 1 0.866667 0.866667 0.438151
129 3 0.235899 0.0968833 0.686763
130 3 0.0803998 0.210717 0.686763
77 1 0.133333 0.133333 0.502605
78 1 0.333333 0.133333 0.502605
79 1 0.533333 0.133333 0.502605
82 1 0.133333 0.333333 0.502605
83 1 0.333333 0.333333 0.502605
84 1 0.533333 0.333333 0.502605
87 1 0.133333 0.533333 0.502605
88 1 0.333333 0.533333 0.502605
92 1 0.133333 0.733333 0.502605
93 1 0.333333 0.733333 0.502605
97 1 0.133333 0.933333 0.502605
101 1 0 0 0.567059
102 1 0.2 0 0.567059
103 1 0.4 0 0.567059
104 1 0.6 0 0.567059
106 1 1.26239e-10 0.2 0.567059
107 1 0.2 0.2 0.567059
108 1 0.4 0.2 0.567059
109 1 0.6 0.2 0.567059
112 1 0.2 0.4 0.567059
113 1 0.4 0.4 0.567059
117 1 0.2 0.6 0.567059
118 1 0.4 0.6 0.567059
121 1 5.26026e-11 0.8 0.567059
122 1 0.2 0.8 0.567059
126 2 0.158149 0.1538 0.706218
127 3 0.178982 0.210717 0.725673
128 3 0.137316 0.0968833 0.725673
76 1 0.933333 0.133333 0.502605
80 1 0.733333 0.133333 0.502605
81 1 0.933333 0.333333 0.502605
85 1 0.733333 0.333333 0.502605
86 1 0.933333 0.533333 0.502605
89 1 0.533333 0.533333 0.502605
90 1 0.733333 0.533333 0.502605
91 1 0.933333 0.733333 0.502605
94 1 0.533333 0.733333 0.502605
95 1 0.733333 0.733333 0.502605
96 1 0.933333 0.933333 0.502605
98 1 0.333333 0.933333 0.502605
99 1 0.533333 0.933333 0.502605
100 1 0.733333 0.933333 0.502605
105 1 0.8 0 0.567059
110 1 0.8 0.2 0.567059
111 1 1 0.4 0.567059
114 1 0.6 0.4 0.567059
115 1 0.8 0.4 0.567059
116 1 1 0.6 0.567059
119 1 0.6 0.6 0.567059
120 1 0.8 0.6 0.567059
123 1 0.4 0.8 0.567059
124 1 0.6 0.8 0.567059
125 1 0.8 0.8 0.567059
ITEM: TIMESTEP
200
ITEM: NUMBER OF ATOMS
130
ITEM: BOX BOUNDS xy xz yz pp pp ff
0.0000000000000000e+00 1.9144916100600000e+01 6.3816387001999999e+00
0.0000000000000000e+00 1.1053322464300001e+01 0.0000000000000000e+00
0.0000000000000000e+00 3.2336937887100000e+01 0.0000000000000000e+00
ITEM: ATOMS id type xs ys zs
2 1 0.133333 0.133333 0.309244
3 1 0.333333 0.133333 0.309244
4 1 0.533333 0.133333 0.309244
7 1 0.133333 0.333333 0.309244
8 1 0.333333 0.333333 0.309244
9 1 0.533333 0.333333 0.309244
12 1 0.133333 0.533333 0.309244
13 1 0.333333 0.533333 0.309244
17 1 0.133333 0.733333 0.309244
18 1 0.333333 0.733333 0.309244
22 1 0.133333 0.933333 0.309244
26 1 0.0267781 0.963238 0.37491
27 1 0.187736 0.0143805 0.367778
28 1 0.439658 0.0266671 0.369523
29 1 0.639409 0.0333001 0.382807
31 1 0.995372 0.205436 0.369785
32 1 0.167034 0.225319 0.364211
33 1 0.416125 0.224565 0.366045
34 1 0.603809 0.223241 0.374564
37 1 0.197639 0.37666 0.373956
38 1 0.390558 0.41348 0.373323
42 1 0.197104 0.557168 0.378347
43 1 0.39715 0.615782 0.370996
46 1 0.0343344 0.751999 0.370871
47 1 0.206038 0.779574 0.372469
51 1 0.0695593 0.0792801 0.437742
52 1 0.268348 0.0404289 0.430009
53 1 0.487244 0.0599614 0.437048
54 1 0.648324 0.0933356 0.452434
56 1 0.0412107 0.273564 0.433209
57 1 0.242854 0.266606 0.44224
58 1 0.44304 0.272259 0.445968
61 1 0.0532629 0.479562 0.444524
62 1 0.24829 0.452264 0.444297
63 1 0.435069 0.460644 0.440837
66 1 0.101667 0.680175 0.442403
67 1 0.295315 0.671903 0.433485
71 1 0.0860612 0.867926 0.435207
72 1 0.314146 0.831001 0.440704
1 1 0.933333 0.133333 0.309244
5 1 0.733333 0.133333 0.309244
6 1 0.933333 0.333333 0.309244
10 1 0.733333 0.333333 0.309244
11 1 0.933333 0.533333 0.309244
14 1 0.533333 0.533333 0.309244
15 1 0.733333 0.533333 0.309244
16 1 0.933333 0.733333 0.309244
19 1 0.533333 0.733333 0.309244
20 1 0.733333 0.733333 0.309244
21 1 0.933333 0.933333 0.309244
23 1 0.333333 0.933333 0.309244
24 1 0.533333 0.933333 0.309244
25 1 0.733333 0.933333 0.309244
30 1 0.843211 0.967931 0.369134
35 1 0.810831 0.1723 0.368477
36 1 0.9748 0.409785 0.361768
39 1 0.579594 0.419498 0.366474
40 1 0.776905 0.39686 0.367475
41 1 0.993433 0.600426 0.381342
44 1 0.596392 0.60459 0.373491
45 1 0.789307 0.595668 0.36848
48 1 0.387064 0.819208 0.371332
49 1 0.585558 0.827289 0.367089
50 1 0.770021 0.823479 0.375383
55 1 0.825154 0.0917073 0.427249
59 1 0.646204 0.270988 0.438837
60 1 0.843583 0.265446 0.435
64 1 0.662323 0.461677 0.433122
65 1 0.837823 0.490146 0.427894
68 1 0.490902 0.678157 0.440869
69 1 0.661559 0.691499 0.429498
70 1 0.878297 0.691747 0.441254
73 1 0.484389 0.877675 0.436963
74 1 0.679876 0.890101 0.44681
75 1 0.883327 0.869787 0.43323
129 3 0.189357 0.0349819 0.790029
130 3 0.0873696 0.180561 0.809052
77 1 0.111386 0.142583 0.5015
78 1 0.34589 0.141233 0.49577
79 1 0.52484 0.124558 0.517706
82 1 0.146953 0.30013 0.51032
83 1 0.334678 0.329543 0.505281
84 1 0.535139 0.324701 0.505334
87 1 0.158602 0.487643 0.514618
88 1 0.320284 0.543905 0.499214
92 1 0.167962 0.727669 0.501802
93 1 0.361981 0.742327 0.520291
97 1 0.156231 0.930282 0.498828
101 1 0.0012701 0.986582 0.582523
102 1 0.20442 0.996763 0.577313
103 1 0.398372 0.00694545 0.583125
104 1 0.55911 0.0395146 0.592659
106 1 0.9965 0.18131 0.553924
107 1 0.153791 0.204731 0.578158
108 1 0.361933 0.212757 0.567273
109 1 0.614611 0.197934 0.575924
112 1 0.164663 0.395334 0.585492
113 1 0.450267 0.368008 0.568225
117 1 0.193019 0.578687 0.577366
118 1 0.385262 0.591736 0.574886
121 1 0.0225641 0.761252 0.557036
122 1 0.196097 0.820868 0.565947
126 2 0.148026 0.118315 0.778518
127 3 0.0769388 0.141467 0.759808
128 3 0.223315 0.111569 0.768801
76 1 0.930232 0.100548 0.48682
80 1 0.756854 0.102702 0.510177
81 1 0.94094 0.311288 0.493632
85 1 0.723962 0.332582 0.492646
86 1 0.932928 0.491742 0.503915
89 1 0.533181 0.514482 0.501368
90 1 0.706142 0.564155 0.484383
91 1 0.986105 0.695307 0.494809
94 1 0.537714 0.740527 0.503082
95 1 0.759398 0.740638 0.511137
96 1 0.94066 0.899276 0.497535
98 1 0.364033 0.928213 0.502295
99 1 0.545802 0.927862 0.503386
100 1 0.705453 0.962804 0.521088
105 1 0.813705 0.00279273 0.581672
110 1 0.802756 0.190498 0.559555
111 1 0.968695 0.40424 0.578874
114 1 0.639126 0.380139 0.572913
115 1 0.798389 0.463385 0.545583
116 1 0.994084 0.576816 0.567035
119 1 0.572146 0.608006 0.567148
120 1 0.807039 0.611406 0.580168
123 1 0.374721 0.815044 0.595244
124 1 0.577836 0.806425 0.580623
125 1 0.8055 0.828776 0.592575
ITEM: TIMESTEP
400
ITEM: NUMBER OF ATOMS
130
ITEM: BOX BOUNDS xy xz yz pp pp ff
0.0000000000000000e+00 1.9144916100600000e+01 6.3816387001999999e+00
0.0000000000000000e+00 1.1053322464300001e+01 0.0000000000000000e+00
0.0000000000000000e+00 3.2336937887100000e+01 0.0000000000000000e+00
ITEM: ATOMS id type xs ys zs
2 1 0.133333 0.133333 0.309244
3 1 0.333333 0.133333 0.309244
4 1 0.533333 0.133333 0.309244
7 1 0.133333 0.333333 0.309244
8 1 0.333333 0.333333 0.309244
9 1 0.533333 0.333333 0.309244
12 1 0.133333 0.533333 0.309244
13 1 0.333333 0.533333 0.309244
17 1 0.133333 0.733333 0.309244
18 1 0.333333 0.733333 0.309244
22 1 0.133333 0.933333 0.309244
26 1 0.979585 0.999371 0.374654
27 1 0.226249 0.977073 0.375856
28 1 0.404771 0.989546 0.375653
29 1 0.592705 0.0101982 0.38781
31 1 0.0166913 0.201023 0.368865
32 1 0.219065 0.183738 0.37408
33 1 0.377466 0.212383 0.382222
34 1 0.591072 0.206255 0.375592
37 1 0.190325 0.424834 0.374585
38 1 0.383917 0.405541 0.375522
42 1 0.208174 0.635255 0.365516
43 1 0.413375 0.583262 0.379321
46 1 0.982948 0.809281 0.376831
47 1 0.227554 0.791575 0.380753
51 1 0.0511238 0.0731908 0.427856
52 1 0.262204 0.0853363 0.432789
53 1 0.439339 0.0942553 0.45205
54 1 0.653103 0.0712049 0.470225
56 1 0.0714786 0.267333 0.441373
57 1 0.261787 0.26249 0.445405
58 1 0.447201 0.284751 0.437889
61 1 0.0512384 0.469909 0.454074
62 1 0.268673 0.452178 0.444908
63 1 0.481508 0.466597 0.441279
66 1 0.076495 0.656919 0.436978
67 1 0.29017 0.640974 0.456184
71 1 0.0804507 0.885743 0.442901
72 1 0.255302 0.910589 0.454076
1 1 0.933333 0.133333 0.309244
5 1 0.733333 0.133333 0.309244
6 1 0.933333 0.333333 0.309244
10 1 0.733333 0.333333 0.309244
11 1 0.933333 0.533333 0.309244
14 1 0.533333 0.533333 0.309244
15 1 0.733333 0.533333 0.309244
16 1 0.933333 0.733333 0.309244
19 1 0.533333 0.733333 0.309244
20 1 0.733333 0.733333 0.309244
21 1 0.933333 0.933333 0.309244
23 1 0.333333 0.933333 0.309244
24 1 0.533333 0.933333 0.309244
25 1 0.733333 0.933333 0.309244
30 1 0.776097 0.0061551 0.370677
35 1 0.783532 0.212417 0.368666
36 1 0.0266025 0.393743 0.383729
39 1 0.620245 0.390201 0.373086
40 1 0.81157 0.401567 0.376071
41 1 0.00112061 0.591843 0.366552
44 1 0.610304 0.598605 0.380932
45 1 0.796179 0.625077 0.370085
48 1 0.426412 0.784376 0.382021
49 1 0.596823 0.833652 0.37158
50 1 0.822301 0.788443 0.374925
55 1 0.861925 0.0570524 0.450152
59 1 0.678715 0.242416 0.437259
60 1 0.881453 0.252595 0.435617
64 1 0.68545 0.426542 0.442509
65 1 0.883596 0.438249 0.440648
68 1 0.479298 0.65081 0.445987
69 1 0.684715 0.705422 0.436061
70 1 0.893234 0.657102 0.44024
73 1 0.479499 0.864256 0.443316
74 1 0.70519 0.88787 0.457825
75 1 0.919929 0.834294 0.446038
129 3 0.199081 0.0133117 0.89969
130 3 0.139865 0.155427 0.877042
77 1 0.172699 0.114977 0.485337
78 1 0.345842 0.104945 0.517866
79 1 0.535452 0.146226 0.539752
82 1 0.104722 0.33015 0.522036
83 1 0.32982 0.321172 0.515655
84 1 0.532643 0.317018 0.505013
87 1 0.147696 0.492287 0.517381
88 1 0.339275 0.50329 0.517662
92 1 0.143614 0.761856 0.510987
93 1 0.357517 0.726968 0.51003
97 1 0.159868 0.93436 0.523081
101 1 0.00365486 0.00416755 0.577956
102 1 0.200044 0.985315 0.580986
103 1 0.367971 0.00195688 0.583764
104 1 0.575696 0.0242411 0.601058
106 1 0.00302955 0.205191 0.565875
107 1 0.175582 0.184638 0.59274
108 1 0.346579 0.224445 0.584502
109 1 0.616577 0.22126 0.591903
112 1 0.153482 0.399501 0.597446
113 1 0.393074 0.364982 0.592382
117 1 0.191059 0.578752 0.590493
118 1 0.399188 0.544129 0.588566
121 1 0.994374 0.807854 0.587096
122 1 0.215013 0.755083 0.582808
126 2 0.132233 0.0683597 0.876888
127 3 0.065662 0.0767008 0.89887
128 3 0.122045 0.0289206 0.848479
76 1 0.966835 0.106636 0.50007
80 1 0.746721 0.133816 0.515315
81 1 0.901366 0.323302 0.497905
85 1 0.720837 0.320644 0.513314
86 1 0.907519 0.537818 0.516566
89 1 0.536666 0.532165 0.510383
90 1 0.711907 0.564702 0.479083
91 1 0.979859 0.688479 0.505645
94 1 0.549718 0.78266 0.502276
95 1 0.766236 0.718571 0.51801
96 1 0.944193 0.915589 0.519659
98 1 0.351141 0.909192 0.527461
99 1 0.541678 0.963393 0.52653
100 1 0.779243 0.882052 0.532875
105 1 0.810707 0.957005 0.601116
110 1 0.805821 0.196373 0.576469
111 1 0.966708 0.398054 0.582377
114 1 0.576131 0.41655 0.566168
115 1 0.756025 0.447285 0.556456
116 1 0.954986 0.625112 0.577842
119 1 0.578409 0.672652 0.564017
120 1 0.760426 0.620581 0.602547
123 1 0.389972 0.785115 0.617038
124 1 0.59472 0.842825 0.591739
125 1 0.8074 0.774991 0.612015
ITEM: TIMESTEP
600
ITEM: NUMBER OF ATOMS
130
ITEM: BOX BOUNDS xy xz yz pp pp ff
0.0000000000000000e+00 1.9144916100600000e+01 6.3816387001999999e+00
0.0000000000000000e+00 1.1053322464300001e+01 0.0000000000000000e+00
0.0000000000000000e+00 3.2336937887100000e+01 0.0000000000000000e+00
ITEM: ATOMS id type xs ys zs
2 1 0.133333 0.133333 0.309244
3 1 0.333333 0.133333 0.309244
4 1 0.533333 0.133333 0.309244
7 1 0.133333 0.333333 0.309244
8 1 0.333333 0.333333 0.309244
9 1 0.533333 0.333333 0.309244
12 1 0.133333 0.533333 0.309244
13 1 0.333333 0.533333 0.309244
17 1 0.133333 0.733333 0.309244
18 1 0.333333 0.733333 0.309244
22 1 0.133333 0.933333 0.309244
26 1 0.990864 0.0252371 0.388732
27 1 0.181843 0.02377 0.376035
28 1 0.428729 0.947713 0.365978
29 1 0.565402 0.000608314 0.403677
31 1 0.00213899 0.203743 0.379956
32 1 0.202487 0.2108 0.373253
33 1 0.379582 0.20117 0.388989
34 1 0.559989 0.204382 0.371545
37 1 0.227186 0.408786 0.392999
38 1 0.422 0.406695 0.373916
42 1 0.232006 0.594076 0.388674
43 1 0.431658 0.589643 0.386948
46 1 0.0161737 0.840011 0.378115
47 1 0.169105 0.845259 0.40131
51 1 0.110695 0.0489117 0.452613
52 1 0.303812 0.0754973 0.43615
53 1 0.489266 0.0545967 0.475833
54 1 0.645539 0.0878338 0.482722
56 1 0.067828 0.251596 0.460179
57 1 0.287791 0.248118 0.455955
58 1 0.486416 0.251237 0.438744
61 1 0.0806811 0.454302 0.451711
62 1 0.298392 0.446525 0.460742
63 1 0.479623 0.470951 0.459625
66 1 0.0834983 0.644813 0.447521
67 1 0.260886 0.683019 0.451215
71 1 0.071024 0.826409 0.461065
72 1 0.296547 0.859404 0.466185
1 1 0.933333 0.133333 0.309244
5 1 0.733333 0.133333 0.309244
6 1 0.933333 0.333333 0.309244
10 1 0.733333 0.333333 0.309244
11 1 0.933333 0.533333 0.309244
14 1 0.533333 0.533333 0.309244
15 1 0.733333 0.533333 0.309244
16 1 0.933333 0.733333 0.309244
19 1 0.533333 0.733333 0.309244
20 1 0.733333 0.733333 0.309244
21 1 0.933333 0.933333 0.309244
23 1 0.333333 0.933333 0.309244
24 1 0.533333 0.933333 0.309244
25 1 0.733333 0.933333 0.309244
30 1 0.78021 0.997156 0.387817
35 1 0.75926 0.199713 0.377209
36 1 0.016229 0.406466 0.385991
39 1 0.608838 0.396746 0.384556
40 1 0.82466 0.388769 0.376445
41 1 0.00404282 0.650081 0.376995
44 1 0.614893 0.595244 0.376661
45 1 0.851258 0.5675 0.383391
48 1 0.386709 0.77983 0.39209
49 1 0.640809 0.760328 0.376142
50 1 0.795431 0.809643 0.387223
55 1 0.88714 0.044515 0.456422
59 1 0.697293 0.227647 0.447955
60 1 0.880006 0.222662 0.432865
64 1 0.699901 0.432702 0.449062
65 1 0.877813 0.460981 0.447916
68 1 0.509308 0.656183 0.455935
69 1 0.671822 0.680124 0.444985
70 1 0.896324 0.643538 0.452867
73 1 0.471102 0.893854 0.439131
74 1 0.672874 0.856566 0.467019
75 1 0.851117 0.872898 0.463312
129 3 0.124085 0.957103 0.836079
130 3 0.148933 0.977542 0.901962
77 1 0.170186 0.0593393 0.539479
78 1 0.309329 0.126449 0.531656
79 1 0.519192 0.169748 0.549049
82 1 0.134508 0.293657 0.532357
83 1 0.344398 0.323758 0.521847
84 1 0.537571 0.314773 0.511681
87 1 0.14009 0.520033 0.527973
88 1 0.350444 0.520869 0.537133
92 1 0.133076 0.694073 0.52429
93 1 0.337867 0.702057 0.515495
97 1 0.132479 0.894984 0.522319
101 1 0.991752 0.00851398 0.589087
102 1 0.194179 0.979867 0.615976
103 1 0.429481 0.964767 0.60779
104 1 0.622746 0.0080878 0.606996
106 1 0.0140621 0.19381 0.588564
107 1 0.19818 0.204052 0.598464
108 1 0.411916 0.152247 0.604091
109 1 0.587116 0.216519 0.612815
112 1 0.14374 0.423752 0.587058
113 1 0.349214 0.400335 0.590532
117 1 0.17513 0.602376 0.590607
118 1 0.359789 0.623906 0.603747
121 1 0.0090181 0.777131 0.610088
122 1 0.192146 0.805728 0.589854
126 2 0.114303 0.0177259 0.870435
127 3 0.0161012 0.111055 0.878008
128 3 0.201873 0.00674167 0.856379
76 1 0.908541 0.153184 0.510902
80 1 0.744923 0.110755 0.550656
81 1 0.900818 0.350619 0.526318
85 1 0.740391 0.329317 0.514143
86 1 0.956949 0.525419 0.512596
89 1 0.542435 0.53412 0.51251
90 1 0.742222 0.536455 0.524031
91 1 0.93785 0.702833 0.51311
94 1 0.543447 0.78509 0.497889
95 1 0.747585 0.72045 0.537233
96 1 0.925321 0.946514 0.516207
98 1 0.351832 0.89636 0.544221
99 1 0.560622 0.944156 0.536398
100 1 0.783305 0.898843 0.554187
105 1 0.799033 0.0190554 0.614654
110 1 0.817429 0.216011 0.593446
111 1 0.935871 0.444743 0.591087
114 1 0.576107 0.405077 0.567567
115 1 0.75467 0.403643 0.586454
116 1 0.965572 0.623319 0.582786
119 1 0.539898 0.657493 0.559004
120 1 0.739832 0.601214 0.598718
123 1 0.373614 0.797184 0.603672
124 1 0.608131 0.808536 0.591577
125 1 0.785213 0.820984 0.62013
ITEM: TIMESTEP
800
ITEM: NUMBER OF ATOMS
130
ITEM: BOX BOUNDS xy xz yz pp pp ff
0.0000000000000000e+00 1.9144916100600000e+01 6.3816387001999999e+00
0.0000000000000000e+00 1.1053322464300001e+01 0.0000000000000000e+00
0.0000000000000000e+00 3.2336937887100000e+01 0.0000000000000000e+00
ITEM: ATOMS id type xs ys zs
2 1 0.133333 0.133333 0.309244
3 1 0.333333 0.133333 0.309244
4 1 0.533333 0.133333 0.309244
7 1 0.133333 0.333333 0.309244
8 1 0.333333 0.333333 0.309244
9 1 0.533333 0.333333 0.309244
12 1 0.133333 0.533333 0.309244
13 1 0.333333 0.533333 0.309244
17 1 0.133333 0.733333 0.309244
18 1 0.333333 0.733333 0.309244
22 1 0.133333 0.933333 0.309244
26 1 0.977988 0.0427202 0.38081
27 1 0.204196 0.0125274 0.37366
28 1 0.383969 0.0260288 0.373683
29 1 0.625355 0.00779806 0.421598
31 1 -0.000698927 0.220033 0.379159
32 1 0.193413 0.212033 0.399795
33 1 0.436301 0.156276 0.377881
34 1 0.614256 0.175363 0.378406
37 1 0.226685 0.38117 0.400783
38 1 0.415919 0.368212 0.383633
42 1 0.194671 0.596628 0.400933
43 1 0.396827 0.620229 0.376608
46 1 0.975563 0.812687 0.376862
47 1 0.18544 0.870899 0.420344
51 1 0.124836 0.0519944 0.477258
52 1 0.287826 0.0258526 0.446833
53 1 0.490421 0.0553159 0.47614
54 1 0.694697 0.070282 0.499641
56 1 0.0876593 0.246408 0.465407
57 1 0.275546 0.260242 0.474119
58 1 0.500345 0.221629 0.452748
61 1 0.0572567 0.455496 0.447307
62 1 0.302705 0.453005 0.463823
63 1 0.458817 0.458241 0.439469
66 1 0.106164 0.610914 0.470774
67 1 0.305392 0.672535 0.455846
71 1 0.00923593 0.835832 0.458102
72 1 0.344664 0.856012 0.477823
1 1 0.933333 0.133333 0.309244
5 1 0.733333 0.133333 0.309244
6 1 0.933333 0.333333 0.309244
10 1 0.733333 0.333333 0.309244
11 1 0.933333 0.533333 0.309244
14 1 0.533333 0.533333 0.309244
15 1 0.733333 0.533333 0.309244
16 1 0.933333 0.733333 0.309244
19 1 0.533333 0.733333 0.309244
20 1 0.733333 0.733333 0.309244
21 1 0.933333 0.933333 0.309244
23 1 0.333333 0.933333 0.309244
24 1 0.533333 0.933333 0.309244
25 1 0.733333 0.933333 0.309244
30 1 0.78951 0.0147659 0.391529
35 1 0.810871 0.198427 0.374634
36 1 0.0142296 0.414584 0.370888
39 1 0.60474 0.384705 0.385457
40 1 0.781867 0.405841 0.37695
41 1 0.0252201 0.585178 0.386115
44 1 0.601843 0.596 0.37642
45 1 0.808654 0.608076 0.375776
48 1 0.390296 0.81044 0.382912
49 1 0.583578 0.793667 0.371898
50 1 0.757565 0.821057 0.391045
55 1 0.897592 0.0478037 0.456194
59 1 0.664682 0.277236 0.454054
60 1 0.886886 0.251993 0.454457
64 1 0.67575 0.452576 0.450232
65 1 0.882488 0.410036 0.475545
68 1 0.498701 0.654207 0.445296
69 1 0.734366 0.622772 0.442414
70 1 0.882184 0.671321 0.457252
73 1 0.50746 0.859608 0.436693
74 1 0.672968 0.810467 0.48209
75 1 0.799457 0.898889 0.45577
129 3 0.0975902 0.878738 0.814106
130 3 0.0236685 0.0644963 0.791644
77 1 0.101395 0.0801481 0.567279
78 1 0.34399 0.0702804 0.537729
79 1 0.517277 0.126755 0.550444
82 1 0.141061 0.316453 0.527992
83 1 0.352542 0.303814 0.531454
84 1 0.53702 0.294015 0.515658
87 1 0.151571 0.50852 0.525763
88 1 0.357798 0.49452 0.542491
92 1 0.13425 0.723115 0.534772
93 1 0.330675 0.735152 0.542662
97 1 0.13949 0.914447 0.518268
101 1 0.987937 0.0261527 0.609632
102 1 0.17578 0.0433138 0.641342
103 1 0.385961 1.00112 0.624783
104 1 0.601219 0.981362 0.620287
106 1 0.997131 0.238692 0.629081
107 1 0.23293 0.163206 0.601536
108 1 0.389863 0.188202 0.635093
109 1 0.596265 0.194715 0.626849
112 1 0.1802 0.38724 0.602138
113 1 0.401036 0.354755 0.606351
117 1 0.183161 0.602869 0.597338
118 1 0.36444 0.619699 0.600698
121 1 0.978186 0.845562 0.604417
122 1 0.168795 0.823929 0.589111
126 2 0.102897 0.95751 0.783675
127 3 0.0661732 0.934206 0.75441
128 3 0.170218 1.00318 0.781532
76 1 0.919154 0.11345 0.519596
80 1 0.718037 0.160587 0.555077
81 1 0.976916 0.25365 0.541813
85 1 0.750858 0.332339 0.527292
86 1 0.93716 0.522075 0.51972
89 1 0.533572 0.506421 0.509453
90 1 0.765334 0.519594 0.535381
91 1 0.932349 0.762828 0.518417
94 1 0.563511 0.743553 0.515747
95 1 0.768319 0.731922 0.552394
96 1 0.916907 0.951637 0.5387
98 1 0.358451 0.884528 0.553281
99 1 0.573759 0.927814 0.548018
100 1 0.750777 0.927482 0.562796
105 1 0.80597 0.0260729 0.6472
110 1 0.818768 0.218769 0.60555
111 1 0.970062 0.414696 0.592628
114 1 0.558828 0.393801 0.598607
115 1 0.757786 0.424673 0.603009
116 1 0.967789 0.617138 0.587833
119 1 0.547174 0.627118 0.582835
120 1 0.774013 0.60415 0.611771
123 1 0.375932 0.811723 0.62066
124 1 0.557318 0.797077 0.598156
125 1 0.807205 0.786845 0.631392
ITEM: TIMESTEP
1000
ITEM: NUMBER OF ATOMS
130
ITEM: BOX BOUNDS xy xz yz pp pp ff
0.0000000000000000e+00 1.9144916100600000e+01 6.3816387001999999e+00
0.0000000000000000e+00 1.1053322464300001e+01 0.0000000000000000e+00
0.0000000000000000e+00 3.2336937887100000e+01 0.0000000000000000e+00
ITEM: ATOMS id type xs ys zs
2 1 0.133333 0.133333 0.309244
3 1 0.333333 0.133333 0.309244
4 1 0.533333 0.133333 0.309244
7 1 0.133333 0.333333 0.309244
8 1 0.333333 0.333333 0.309244
9 1 0.533333 0.333333 0.309244
12 1 0.133333 0.533333 0.309244
13 1 0.333333 0.533333 0.309244
17 1 0.133333 0.733333 0.309244
18 1 0.333333 0.733333 0.309244
22 1 0.133333 0.933333 0.309244
26 1 0.0598304 0.914953 0.375337
27 1 0.185456 0.0150107 0.376717
28 1 0.40102 0.99292 0.378702
29 1 0.640687 0.022979 0.420838
31 1 0.0126874 0.19862 0.380009
32 1 0.219076 0.190342 0.392657
33 1 0.447108 0.154517 0.376521
34 1 0.648 0.196794 0.38661
37 1 0.203379 0.392597 0.397803
38 1 0.3962 0.402881 0.376785
42 1 0.198147 0.639264 0.396489
43 1 0.372905 0.600299 0.37364
46 1 0.979945 0.75777 0.377035
47 1 0.181077 0.903328 0.446926
51 1 0.0814284 0.0633283 0.482424
52 1 0.31875 0.0451968 0.448909
53 1 0.482826 0.0188728 0.487068
54 1 0.687008 0.0837732 0.496208
56 1 0.0704996 0.255163 0.458417
57 1 0.284553 0.251436 0.463165
58 1 0.470157 0.263749 0.450295
61 1 0.0571876 0.442454 0.461117
62 1 0.277535 0.433969 0.474165
63 1 0.488873 0.457928 0.435192
66 1 0.0948296 0.623461 0.468802
67 1 0.291366 0.627496 0.483797
71 1 0.0494717 0.839717 0.434343
72 1 0.34328 0.833278 0.499763
1 1 0.933333 0.133333 0.309244
5 1 0.733333 0.133333 0.309244
6 1 0.933333 0.333333 0.309244
10 1 0.733333 0.333333 0.309244
11 1 0.933333 0.533333 0.309244
14 1 0.533333 0.533333 0.309244
15 1 0.733333 0.533333 0.309244
16 1 0.933333 0.733333 0.309244
19 1 0.533333 0.733333 0.309244
20 1 0.733333 0.733333 0.309244
21 1 0.933333 0.933333 0.309244
23 1 0.333333 0.933333 0.309244
24 1 0.533333 0.933333 0.309244
25 1 0.733333 0.933333 0.309244
30 1 0.829769 0.989889 0.368326
35 1 0.805053 0.232061 0.387202
36 1 0.991399 0.383645 0.375265
39 1 0.582293 0.421353 0.364139
40 1 0.79539 0.431333 0.389409
41 1 0.00912913 0.577734 0.391097
44 1 0.588074 0.620214 0.372341
45 1 0.783777 0.621482 0.372057
48 1 0.376676 0.818809 0.38181
49 1 0.576816 0.833097 0.375094
50 1 0.75777 0.844894 0.370292
55 1 0.890556 0.0282711 0.456752
59 1 0.70238 0.226084 0.453343
60 1 0.885114 0.248243 0.454324
64 1 0.702705 0.43966 0.461914
65 1 0.884078 0.437802 0.487341
68 1 0.496717 0.653389 0.440922
69 1 0.703141 0.629377 0.447164
70 1 0.891274 0.646326 0.458668
73 1 0.52678 0.830122 0.457106
74 1 0.721393 0.814303 0.494991
75 1 0.834402 0.87786 0.452065
129 3 0.00120736 1.00568 0.697099
130 3 0.00997984 0.883238 0.650884
77 1 0.133267 0.0222145 0.588809
78 1 0.331984 0.112509 0.531697
79 1 0.562156 0.100928 0.565842
82 1 0.150241 0.319958 0.53646
83 1 0.343004 0.283501 0.550857
84 1 0.497134 0.312133 0.521259
87 1 0.147451 0.498672 0.546523
88 1 0.334985 0.492753 0.542139
92 1 0.149492 0.690885 0.533411
93 1 0.373532 0.675196 0.545483
97 1 0.145395 0.891955 0.527487
101 1 0.964446 0.0484163 0.63812
102 1 0.179047 0.0631127 0.659841
103 1 0.37403 0.000729775 0.634803
104 1 0.577669 0.982905 0.634984
106 1 0.981111 0.241008 0.632294
107 1 0.14988 0.213283 0.599629
108 1 0.345783 0.194278 0.645065
109 1 0.645333 0.150217 0.629493
112 1 0.214588 0.376175 0.611076
113 1 0.423103 0.351784 0.612261
117 1 0.20151 0.581493 0.609652
118 1 0.391714 0.554928 0.607382
121 1 0.958433 0.823062 0.608221
122 1 0.190493 0.822026 0.606073
126 2 0.0837788 0.907714 0.686984
127 3 0.108042 0.83419 0.709422
128 3 0.166356 0.914169 0.701766
76 1 0.934262 0.140537 0.537277
80 1 0.671794 0.229856 0.563141
81 1 0.99409 0.292101 0.537648
85 1 0.773339 0.330486 0.541384
86 1 0.944881 0.559292 0.532247
89 1 0.511567 0.530707 0.506423
90 1 0.738778 0.512336 0.54633
91 1 0.928984 0.757516 0.529151
94 1 0.548546 0.704413 0.520104
95 1 0.742739 0.713487 0.563378
96 1 0.933849 0.95191 0.541
98 1 0.325599 0.944722 0.57646
99 1 0.520113 0.89125 0.538953
100 1 0.759801 0.947373 0.579713
105 1 0.792999 0.957895 0.650052
110 1 0.801417 0.247053 0.620122
111 1 0.990217 0.423438 0.595412
114 1 0.600633 0.393885 0.613407
115 1 0.792038 0.437063 0.611449
116 1 0.984608 0.621191 0.601046
119 1 0.570114 0.585967 0.602475
120 1 0.830718 0.581767 0.62291
123 1 0.363786 0.780328 0.640018
124 1 0.556581 0.79571 0.612223
125 1 0.768952 0.80921 0.622117
ITEM: TIMESTEP
1200
ITEM: NUMBER OF ATOMS
130
ITEM: BOX BOUNDS xy xz yz pp pp ff
0.0000000000000000e+00 1.9144916100600000e+01 6.3816387001999999e+00
0.0000000000000000e+00 1.1053322464300001e+01 0.0000000000000000e+00
0.0000000000000000e+00 3.2336937887100000e+01 0.0000000000000000e+00
ITEM: ATOMS id type xs ys zs
2 1 0.133333 0.133333 0.309244
3 1 0.333333 0.133333 0.309244
4 1 0.533333 0.133333 0.309244
7 1 0.133333 0.333333 0.309244
8 1 0.333333 0.333333 0.309244
9 1 0.533333 0.333333 0.309244
12 1 0.133333 0.533333 0.309244
13 1 0.333333 0.533333 0.309244
17 1 0.133333 0.733333 0.309244
18 1 0.333333 0.733333 0.309244
22 1 0.133333 0.933333 0.309244
26 1 0.151828 0.824938 0.367861
27 1 0.202103 0.984226 0.384366
29 1 0.672805 0.00899456 0.426692
31 1 0.0103462 0.172978 0.38738
32 1 0.202053 0.192648 0.362916
33 1 0.395003 0.181183 0.389026
34 1 0.583716 0.213119 0.372356
37 1 0.221933 0.411846 0.395572
38 1 0.381452 0.429097 0.375446
42 1 0.217116 0.626856 0.398612
43 1 0.415652 0.603994 0.388975
47 1 0.264556 0.854407 0.441505
51 1 0.0427716 0.0854636 0.498447
52 1 0.29689 0.014194 0.458568
53 1 0.532955 0.0470088 0.48055
54 1 0.684303 0.0605356 0.504573
56 1 0.108352 0.228817 0.450794
57 1 0.325883 0.197584 0.454623
58 1 0.454617 0.288134 0.424742
61 1 0.0791877 0.460918 0.460179
62 1 0.294254 0.406971 0.49137
63 1 0.514073 0.415533 0.445801
66 1 0.0680606 0.658216 0.475685
67 1 0.308725 0.598476 0.46476
71 1 0.0914281 0.805724 0.455314
41 1 0.00399815 0.571764 0.395111
28 1 0.3957 0.982023 0.374496
46 1 0.999066 0.766811 0.378975
72 1 0.331597 0.879763 0.513988
1 1 0.933333 0.133333 0.309244
5 1 0.733333 0.133333 0.309244
6 1 0.933333 0.333333 0.309244
10 1 0.733333 0.333333 0.309244
11 1 0.933333 0.533333 0.309244
14 1 0.533333 0.533333 0.309244
15 1 0.733333 0.533333 0.309244
16 1 0.933333 0.733333 0.309244
19 1 0.533333 0.733333 0.309244
20 1 0.733333 0.733333 0.309244
21 1 0.933333 0.933333 0.309244
23 1 0.333333 0.933333 0.309244
24 1 0.533333 0.933333 0.309244
25 1 0.733333 0.933333 0.309244
30 1 0.823413 0.0261867 0.387976
35 1 0.793582 0.218163 0.387656
36 1 0.0431321 0.35949 0.402685
39 1 0.64303 0.394178 0.383493
40 1 0.793122 0.442365 0.410967
44 1 0.596543 0.638937 0.377617
45 1 0.797416 0.608544 0.385942
48 1 0.380611 0.804698 0.385286
49 1 0.610734 0.802967 0.404051
50 1 0.799073 0.805137 0.381691
55 1 0.880399 0.0353566 0.456208
59 1 0.699588 0.242385 0.471248
60 1 0.8863 0.264001 0.461205
64 1 0.689832 0.438381 0.474226
65 1 0.873266 0.481791 0.468381
68 1 0.440409 0.678144 0.459501
69 1 0.64296 0.642339 0.449313
70 1 0.829406 0.686396 0.458529
73 1 0.512099 0.846307 0.468474
74 1 0.698303 0.866393 0.506251
75 1 0.89875 0.809087 0.442532
130 3 0.102982 0.0360181 0.706499
77 1 0.10224 0.00766231 0.597762
78 1 0.292766 0.0952797 0.529338
79 1 0.532395 0.124722 0.56696
82 1 0.183369 0.298682 0.510372
83 1 0.334069 0.307248 0.55937
84 1 0.515708 0.303034 0.498299
87 1 0.127052 0.522149 0.547172
88 1 0.34906 0.509062 0.554537
92 1 0.0993512 0.730507 0.556215
93 1 0.349555 0.704957 0.573558
97 1 0.154735 0.880524 0.536749
102 1 0.161766 0.0702369 0.660292
103 1 0.395183 0.952898 0.654082
107 1 0.192376 0.194814 0.602108
108 1 0.362316 0.172546 0.628374
109 1 0.653972 0.140304 0.629021
112 1 0.206368 0.396784 0.614251
113 1 0.498065 0.317635 0.604904
117 1 0.190366 0.595885 0.617593
118 1 0.432614 0.5424 0.632871
122 1 0.173754 0.786207 0.611608
126 2 0.189769 0.727048 0.664743
127 3 0.134523 0.752157 0.694219
128 3 0.265212 0.725988 0.675817