130
 Atoms. Timestep: 0
Cu 12.7633 1.47378 10
Cu 2.55266 1.47378 10
Cu 5.10531 1.47378 10
Cu 7.65797 1.47378 10
Cu 10.2106 1.47378 10
Cu 14.0396 3.68444 10
Cu 3.82898 3.68444 10
Cu 6.38164 3.68444 10
Cu 8.93429 3.68444 10
Cu 11.4869 3.68444 10
Cu 15.3159 5.89511 10
Cu 5.10531 5.89511 10
Cu 7.65797 5.89511 10
Cu 10.2106 5.89511 10
Cu 12.7633 5.89511 10
Cu 16.5923 8.10577 10
Cu 6.38164 8.10577 10
Cu 8.93429 8.10577 10
Cu 11.4869 8.10577 10
Cu 14.0396 8.10577 10
Cu 17.8686 10.3164 10
Cu 7.65797 10.3164 10
Cu 10.2106 10.3164 10
Cu 12.7633 10.3164 10
Cu 15.3159 10.3164 10
Cu 0 0 12.0842
Cu 2.55266 0 12.0842
Cu 5.10531 0 12.0842
Cu 7.65797 0 12.0842
Cu 10.2106 0 12.0842
Cu 1.27633 2.21066 12.0842
Cu 3.82898 2.21066 12.0842
Cu 6.38164 2.21066 12.0842
Cu 8.93429 2.21066 12.0842
Cu 11.4869 2.21066 12.0842
Cu 15.3159 4.42133 12.0842
Cu 5.10531 4.42133 12.0842
Cu 7.65797 4.42133 12.0842
Cu 10.2106 4.42133 12.0842
Cu 12.7633 4.42133 12.0842
Cu 16.5923 6.63199 12.0842
Cu 6.38164 6.63199 12.0842
Cu 8.93429 6.63199 12.0842
Cu 11.4869 6.63199 12.0842
Cu 14.0396 6.63199 12.0842
Cu 5.10531 8.84266 12.0842
Cu 7.65797 8.84266 12.0842
Cu 10.2106 8.84266 12.0842
Cu 12.7633 8.84266 12.0842
Cu 15.3159 8.84266 12.0842
Cu 1.27633 0.736888 14.1685
Cu 3.82898 0.736888 14.1685
Cu 6.38164 0.736888 14.1685
Cu 8.93429 0.736888 14.1685
Cu 11.4869 0.736888 14.1685
Cu 2.55266 2.94755 14.1685
Cu 5.10531 2.94755 14.1685
Cu 7.65797 2.94755 14.1685
Cu 10.2106 2.94755 14.1685
Cu 12.7633 2.94755 14.1685
Cu 3.82898 5.15822 14.1685
Cu 6.38164 5.15822 14.1685
Cu 8.93429 5.15822 14.1685
Cu 11.4869 5.15822 14.1685
Cu 14.0396 5.15822 14.1685
Cu 5.10531 7.36888 14.1685
Cu 7.65797 7.36888 14.1685
Cu 10.2106 7.36888 14.1685
Cu 12.7633 7.36888 14.1685
Cu 15.3159 7.36888 14.1685
Cu 6.38164 9.57955 14.1685
Cu 8.93429 9.57955 14.1685
Cu 11.4869 9.57955 14.1685
Cu 14.0396 9.57955 14.1685
Cu 16.5923 9.57955 14.1685
Cu 12.7633 1.47378 16.2527
Cu 2.55266 1.47378 16.2527
Cu 5.10531 1.47378 16.2527
Cu 7.65797 1.47378 16.2527
Cu 10.2106 1.47378 16.2527
Cu 14.0396 3.68444 16.2527
Cu 3.82898 3.68444 16.2527
Cu 6.38164 3.68444 16.2527
Cu 8.93429 3.68444 16.2527
Cu 11.4869 3.68444 16.2527
Cu 15.3159 5.89511 16.2527
Cu 5.10531 5.89511 16.2527
Cu 7.65797 5.89511 16.2527
Cu 10.2106 5.89511 16.2527
Cu 12.7633 5.89511 16.2527
Cu 16.5923 8.10577 16.2527
Cu 6.38164 8.10577 16.2527
Cu 8.93429 8.10577 16.2527
Cu 11.4869 8.10577 16.2527
Cu 14.0396 8.10577 16.2527
Cu 17.8686 10.3164 16.2527
Cu 7.65797 10.3164 16.2527
Cu 10.2106 10.3164 16.2527
Cu 12.7633 10.3164 16.2527
Cu 15.3159 10.3164 16.2527
Cu 0 0 18.3369
Cu 2.55266 0 18.3369
Cu 5.10531 0 18.3369
Cu 7.65797 0 18.3369
Cu 10.2106 0 18.3369
Cu 1.27633 2.21066 18.3369
Cu 3.82898 2.21066 18.3369
Cu 6.38164 2.21066 18.3369
Cu 8.93429 2.21066 18.3369
Cu 11.4869 2.21066 18.3369
Cu 15.3159 4.42133 18.3369
Cu 5.10531 4.42133 18.3369
Cu 7.65797 4.42133 18.3369
Cu 10.2106 4.42133 18.3369
Cu 12.7633 4.42133 18.3369
Cu 16.5923 6.63199 18.3369
Cu 6.38164 6.63199 18.3369
Cu 8.93429 6.63199 18.3369
Cu 11.4869 6.63199 18.3369
Cu 14.0396 6.63199 18.3369
Cu 5.10531 8.84266 18.3369
Cu 7.65797 8.84266 18.3369
Cu 10.2106 8.84266 18.3369
Cu 12.7633 8.84266 18.3369
Cu 15.3159 8.84266 18.3369
C 3 1.7 22.8369
H 3.62912 2.32912 23.4661
H 2.37088 1.07088 23.4661
H 3.62912 1.07088 22.2078
H 2.37088 2.32912 22.2078
130
 Atoms. Timestep: 200
Cu 12.7633 1.47378 10
Cu 2.55266 1.47378 10
Cu 5.10531 1.47378 10
Cu 7.65797 1.47378 10
Cu 10.2106 1.47378 10
Cu 14.0396 3.68444 10
Cu 3.82898 3.68444 10
Cu 6.38164 3.68444 10
Cu 8.93429 3.68444 10
Cu 11.4869 3.68444 10
Cu 15.3159 5.89511 10
Cu 5.10531 5.89511 10
Cu 7.65797 5.89511 10
Cu 10.2106 5.89511 10
Cu 12.7633 5.89511 10
Cu 16.5923 8.10577 10
Cu 6.38164 8.10577 10
Cu 8.93429 8.10577 10
Cu 11.4869 8.10577 10
Cu 14.0396 8.10577 10
Cu 17.8686 10.3164 10
Cu 7.65797 10.3164 10
Cu 10.2106 10.3164 10
Cu 12.7633 10.3164 10
Cu 15.3159 10.3164 10
Cu 6.48881 10.647 12.1234
Cu 2.4879 0.158952 11.8928
Cu 5.78166 0.29476 11.9493
Cu 8.37346 0.368077 12.3788
Cu 16.9391 10.6989 11.9367
Cu 14.0152 2.27075 11.9577
Cu 3.56981 2.49052 11.7775
Cu 6.74421 2.48219 11.8368
Cu 9.13122 2.46755 12.1122
Cu 11.4484 1.90448 11.9154
Cu 15.0567 4.52948 11.6985
Cu 4.92624 4.16335 12.0926
Cu 7.62348 4.57032 12.0721
Cu 10.0746 4.63685 11.8507
Cu 12.4485 4.38662 11.883
Cu 16.5112 6.6367 12.3314
Cu 6.07133 6.15856 12.2346
Cu 8.99864 6.80644 11.9969
Cu 11.4702 6.68272 12.0775
Cu 13.8755 6.58411 11.9155
Cu 5.2372 8.31209 11.9928
Cu 7.60468 8.61688 12.0445
Cu 10.1681 9.05498 12.0077
Cu 12.7531 9.14429 11.8705
Cu 15.0831 9.10218 12.1388
Cu 1.39374 0.876309 14.1552
Cu 3.683 0.446874 13.9052
Cu 6.60148 0.662773 14.1328
Cu 8.87037 1.03167 14.6303
Cu 11.1169 1.01367 13.8159
Cu 2.27177 3.02379 14.0087
Cu 4.801 2.94688 14.3007
Cu 7.39211 3.00937 14.4212
Cu 9.97703 2.99532 14.1906
Cu 12.4609 2.93406 14.0666
Cu 3.7402 5.30076 14.3746
Cu 6.05518 4.99902 14.3672
Cu 8.49256 5.09165 14.2553
Cu 11.3997 5.10307 14.0058
Cu 13.8213 5.41775 13.8368
Cu 5.63823 7.5182 14.3059
Cu 8.05702 7.42676 14.0176
Cu 10.5933 7.49589 14.2564
Cu 12.8566 7.64336 13.8886
Cu 15.6244 7.64611 14.2688
Cu 6.63721 9.59346 14.0733
Cu 9.31269 9.18533 14.251
Cu 11.7834 9.70123 14.13
Cu 14.3577 9.83857 14.4485
Cu 16.8248 9.61403 14.0093
Cu 12.5145 1.11139 15.7423
Cu 2.33156 1.57601 16.217
Cu 5.31599 1.5611 16.0317
Cu 7.49357 1.37678 16.741
Cu 10.3153 1.1352 16.4976
Cu 13.996 3.44076 15.9626
Cu 3.79092 3.31744 16.5022
Cu 6.37461 3.64255 16.3392
Cu 8.90225 3.58902 16.341
Cu 11.3625 3.67614 15.9307
Cu 15.0453 5.43538 16.2951
Cu 5.13624 5.39008 16.6412
Cu 7.55887 6.01196 16.1431
Cu 10.0884 5.68674 16.2127
Cu 12.6129 6.23579 15.6635
Cu 17.0231 7.68545 16.0006
Cu 6.78747 8.04316 16.2267
Cu 9.35733 8.20518 16.8246
Cu 11.5888 8.18529 16.2681
Cu 14.4189 8.18651 16.5286
Cu 17.7448 9.93998 16.0888
Cu 7.93075 10.2827 16.1306
Cu 10.5698 10.2598 16.2427
Cu 12.8875 10.256 16.278
Cu 15.1482 10.6422 16.8504
Cu 6.31222 10.905 18.837
Cu 8.97004 11.0175 18.6685
Cu 5.12885 0.0767703 18.8565
Cu 7.38825 0.436768 19.1648
Cu 10.4034 0.030869 18.8095
Cu 13.8757 2.00407 17.9122
Cu 3.2694 2.26296 18.6959
Cu 5.97719 2.35167 18.3439
Cu 9.1076 2.18783 18.6236
Cu 11.4615 2.10564 18.0943
Cu 14.9434 4.46819 18.719
Cu 4.62451 4.36976 18.933
Cu 8.09537 4.06771 18.3747
Cu 10.5833 4.20179 18.5262
Cu 13.1472 5.12194 17.6425
Cu 16.3688 6.37573 18.3362
Cu 6.15653 6.39641 18.6702
Cu 8.69346 6.54065 18.59
Cu 11.1825 6.72048 18.3398
Cu 14.2022 6.75807 18.7608
Cu 5.14603 8.41437 18.0128
Cu 7.74133 9.07331 18.301
Cu 9.98398 9.00894 19.2484
Cu 12.5214 8.91368 18.7756
Cu 15.5698 9.16073 19.1621
C 2.64434 1.30778 25.1749
H 1.88478 1.56368 24.5699
H 3.56223 1.23321 24.8607
H 2.64006 0.386666 25.5471
H 2.26739 1.99579 26.1623
130
 Atoms. Timestep: 400
Cu 12.7633 1.47378 10
Cu 2.55266 1.47378 10
Cu 5.10531 1.47378 10
Cu 7.65797 1.47378 10
Cu 10.2106 1.47378 10
Cu 14.0396 3.68444 10
Cu 3.82898 3.68444 10
Cu 6.38164 3.68444 10
Cu 8.93429 3.68444 10
Cu 11.4869 3.68444 10
Cu 15.3159 5.89511 10
Cu 5.10531 5.89511 10
Cu 7.65797 5.89511 10
Cu 10.2106 5.89511 10
Cu 12.7633 5.89511 10
Cu 16.5923 8.10577 10
Cu 6.38164 8.10577 10
Cu 8.93429 8.10577 10
Cu 11.4869 8.10577 10
Cu 14.0396 8.10577 10
Cu 17.8686 10.3164 10
Cu 7.65797 10.3164 10
Cu 10.2106 10.3164 10
Cu 12.7633 10.3164 10
Cu 15.3159 10.3164 10
Cu 18.8803 11.0464 12.1152
Cu 9.12301 10.7999 12.154
Cu 11.4811 10.9378 12.1475
Cu 7.62994 0.112724 12.5406
Cu 9.94482 0.0680343 11.9866
Cu 1.49589 2.22198 11.928
Cu 3.96854 2.03091 12.0966
Cu 6.17305 2.34754 12.3599
Cu 8.86026 2.2798 12.1455
Cu 11.356 2.34791 11.9215
Cu 2.85226 4.35217 12.4086
Cu 5.14031 4.69583 12.1129
Cu 7.48805 4.48258 12.1432
Cu 10.4065 4.31302 12.0645
Cu 12.9209 4.43865 12.161
Cu 3.79123 6.54183 11.8532
Cu 6.71095 7.02168 11.8197
Cu 8.99819 6.44698 12.2661
Cu 11.6096 6.61658 12.3182
Cu 14.1509 6.90917 11.9674
Cu 17.7102 8.94525 12.1856
Cu 7.95588 8.74953 12.3124
Cu 10.448 8.66996 12.3534
Cu 12.9375 9.21462 12.0158
Cu 15.5268 8.71492 12.1239
Cu 1.11958 0.809001 13.8356
Cu 3.89117 0.943249 13.9951
Cu 6.20891 1.04183 14.6179
Cu 8.79013 0.787051 15.2056
Cu 11.3651 0.630619 14.5565
Cu 2.61832 2.95492 14.2727
Cu 5.01637 2.90139 14.403
Cu 7.52493 3.14745 14.16
Cu 10.2096 2.67951 14.1396
Cu 12.8622 2.79202 14.0865
Cu 3.65276 5.19406 14.6834
Cu 6.31478 4.99807 14.387
Cu 9.12328 5.15745 14.2696
Cu 11.4706 4.71471 14.3094
Cu 14.0743 4.84411 14.2492
Cu 5.16854 7.26113 14.1305
Cu 7.79398 7.08489 14.7516
Cu 10.2706 7.19361 14.4218
Cu 13.241 7.79725 14.1009
Cu 15.594 7.26316 14.236
Cu 6.67931 9.7904 14.322
Cu 9.06954 10.065 14.6834
Cu 11.6353 9.5529 14.3355
Cu 14.6666 9.81391 14.8047
Cu 17.0655 9.22172 14.4235
Cu 13.0205 1.17868 16.1707
Cu 2.93795 1.27088 15.6943
Cu 5.0838 1.15999 16.7462
Cu 7.76729 1.61628 17.4539
Cu 10.3846 1.47911 16.6637
Cu 13.5676 3.57356 16.1007
Cu 3.44349 3.64925 16.881
Cu 6.25918 3.55002 16.6747
Cu 8.82136 3.5041 16.3306
Cu 11.2465 3.54418 16.599
Cu 15.0151 5.94467 16.7042
Cu 5.02668 5.44141 16.7305
Cu 7.54207 5.56302 16.7396
Cu 10.2457 5.88219 16.5042
Cu 12.69 6.24184 15.4921
Cu 16.8998 7.60998 16.351
Cu 6.69488 8.42104 16.5238
Cu 9.20234 8.03541 16.4928
Cu 12.0109 8.651 16.2421
Cu 14.3653 7.9426 16.7509
Cu 17.894 10.1203 16.8042
Cu 8.0032 10.3278 16.9148
Cu 10.2838 10.0496 17.0565
Cu 13.0616 10.6487 17.0264
Cu 15.5746 9.7496 17.2316
Cu 0.0732438 0.0460653 18.6893
Cu 8.84114 10.891 18.7873
Cu 4.709 0.0216301 18.8771
Cu 7.50247 0.267945 19.4364
Cu 16.4545 10.5781 19.4383
Cu 1.34812 2.26804 18.2986
Cu 3.41929 2.04086 19.1674
Cu 5.85581 2.48087 18.901
Cu 9.28154 2.44566 19.1403
Cu 11.5381 2.17057 18.6412
Cu 14.8786 4.39982 18.8323
Cu 4.5084 4.41581 19.3196
Cu 7.3461 4.03426 19.1558
Cu 10.0116 4.60426 18.3082
Cu 12.5038 4.94399 17.9941
Cu 16.178 6.90956 18.6856
Cu 6.13192 6.39713 19.0947
Cu 8.56738 6.01443 19.0324
Cu 11.675 7.43504 18.2386
Cu 13.6659 6.85948 19.4845
Cu 17.8469 8.92947 18.9849
Cu 7.56293 8.34617 18.8462
Cu 9.98764 8.67813 19.9531
Cu 12.9692 9.31602 19.135
Cu 15.2508 8.56622 19.7907
C 2.12398 0.755601 28.3559
H 1.32754 0.847798 29.0667
H 1.74225 0.319669 27.4372
H 2.62587 0.147138 29.0932
H 2.77701 1.71798 28.3608
130
 Atoms. Timestep: 600
Cu 12.7633 1.47378 10
Cu 2.55266 1.47378 10
Cu 5.10531 1.47378 10
Cu 7.65797 1.47378 10
Cu 10.2106 1.47378 10
Cu 14.0396 3.68444 10
Cu 3.82898 3.68444 10
Cu 6.38164 3.68444 10
Cu 8.93429 3.68444 10
Cu 11.4869 3.68444 10
Cu 15.3159 5.89511 10
Cu 5.10531 5.89511 10
Cu 7.65797 5.89511 10
Cu 10.2106 5.89511 10
Cu 12.7633 5.89511 10
Cu 16.5923 8.10577 10
Cu 6.38164 8.10577 10
Cu 8.93429 8.10577 10
Cu 11.4869 8.10577 10
Cu 14.0396 8.10577 10
Cu 17.8686 10.3164 10
Cu 7.65797 10.3164 10
Cu 10.2106 10.3164 10
Cu 12.7633 10.3164 10
Cu 15.3159 10.3164 10
Cu 12.8077 0.278954 12.5704
Cu 2.4726 0.262737 12.1598
Cu 11.52 10.4754 11.8346
Cu 7.22027 0.00672389 13.0537
Cu 16.3215 11.0219 12.5408
Cu 1.32752 2.25204 12.2866
Cu 3.92965 2.33005 12.0698
Cu 6.1285 2.22359 12.5787
Cu 8.45159 2.2591 12.0146
Cu 10.9651 2.20749 12.1978
Cu 2.80105 4.4928 12.4818
Cu 5.50836 4.51844 12.7084
Cu 7.98148 4.49534 12.0913
Cu 10.3027 4.38536 12.4353
Cu 13.0063 4.29719 12.1731
Cu 4.20018 7.18555 12.1909
Cu 6.75234 6.56652 12.5685
Cu 9.27226 6.51751 12.5127
Cu 11.6467 6.57942 12.1801
Cu 14.4864 6.27276 12.3977
Cu 5.56708 9.28491 12.2271
Cu 7.55247 9.34292 12.9771
Cu 9.91226 8.61971 12.679
Cu 13.031 8.40415 12.1633
Cu 15.3192 8.94925 12.5216
Cu 1.72497 0.540637 14.6361
Cu 4.35943 0.834496 14.1038
Cu 6.59305 0.603475 15.387
Cu 8.79972 0.970856 15.6098
Cu 11.6069 0.492039 14.7593
Cu 2.4713 2.78097 14.8808
Cu 5.25655 2.74253 14.7442
Cu 7.81157 2.777 14.1876
Cu 10.3525 2.51626 14.4855
Cu 12.6527 2.46116 13.9975
Cu 3.92895 5.02155 14.607
Cu 6.65802 4.93559 14.899
Cu 9.127 5.20558 14.8629
Cu 11.6944 4.7828 14.5213
Cu 14.1456 5.09538 14.4842
Cu 5.18067 7.12732 14.4715
Cu 7.68853 7.54963 14.5909
Cu 10.688 7.25301 14.7436
Cu 12.915 7.51763 14.3895
Cu 15.5469 7.11324 14.6443
Cu 6.18034 9.13456 14.9094
Cu 9.26932 9.49927 15.075
Cu 11.7171 9.88006 14.2002
Cu 14.0544 9.4679 15.102
Cu 16.4336 9.64842 14.9821
Cu 12.5735 1.69319 16.521
Cu 2.55081 0.655897 17.4451
Cu 4.755 1.39768 17.1921
Cu 7.70986 1.87628 17.7546
Cu 10.2145 1.22421 17.8065
Cu 13.7349 3.8755 17.0195
Cu 3.59078 3.24589 17.2148
Cu 6.46175 3.5786 16.8749
Cu 8.86994 3.47929 16.5462
Cu 11.5514 3.64005 16.6258
Cu 15.5668 5.80762 16.5758
Cu 5.10667 5.7481 17.073
Cu 7.79681 5.75734 17.3692
Cu 10.3318 5.9038 16.573
Cu 12.8967 5.92961 16.9456
Cu 16.4553 7.76864 16.5924
Cu 6.12781 7.67181 16.9539
Cu 8.79257 7.76006 16.6695
Cu 11.9463 8.67785 16.1002
Cu 14.1393 7.96337 17.3725
Cu 17.8504 10.4621 16.6926
Cu 7.40233 9.89255 16.8902
Cu 10.2108 9.90775 17.5985
Cu 13.1806 10.4361 17.3455
Cu 15.7336 9.9352 17.9207
Cu 12.7123 0.0941078 19.0493
Cu 8.73152 10.8308 19.9188
Cu 11.6384 10.6639 19.6541
Cu 7.9999 0.0893971 19.6284
Cu 10.3199 0.210626 19.876
Cu 1.41631 2.14225 19.0324
Cu 3.83162 2.25546 19.3525
Cu 6.22898 1.68283 19.5344
Cu 8.87527 2.39326 19.8166
Cu 11.8116 2.38764 19.1902
Cu 14.783 4.91589 19.1139
Cu 4.53883 4.68387 18.9837
Cu 7.01191 4.42504 19.096
Cu 9.93807 4.47744 18.3534
Cu 12.208 4.46159 18.9641
Cu 16.3017 6.88975 18.8455
Cu 6.07938 6.65826 19.0984
Cu 8.57362 6.89623 19.5233
Cu 11.0868 7.26748 18.0765
Cu 13.2794 6.64541 19.3607
Cu 5.07447 8.58988 19.7284
Cu 7.59427 8.90597 19.0741
Cu 9.85588 8.81154 19.5209
Cu 12.9215 8.937 19.1298
Cu 15.2611 9.0746 20.0531
C 1.572 0.19593 28.1472
H 0.914218 1.22753 28.3921
H 2.61959 0.0745179 27.6927
H 7.69162 10.5792 27.0362
H 8.13919 10.8051 29.1667
130
 Atoms. Timestep: 800
Cu 12.7633 1.47378 10
Cu 2.55266 1.47378 10
Cu 5.10531 1.47378 10
Cu 7.65797 1.47378 10
Cu 10.2106 1.47378 10
Cu 14.0396 3.68444 10
Cu 3.82898 3.68444 10
Cu 6.38164 3.68444 10
Cu 8.93429 3.68444 10
Cu 11.4869 3.68444 10
Cu 15.3159 5.89511 10
Cu 5.10531 5.89511 10
Cu 7.65797 5.89511 10
Cu 10.2106 5.89511 10
Cu 12.7633 5.89511 10
Cu 16.5923 8.10577 10
Cu 6.38164 8.10577 10
Cu 8.93429 8.10577 10
Cu 11.4869 8.10577 10
Cu 14.0396 8.10577 10
Cu 17.8686 10.3164 10
Cu 7.65797 10.3164 10
Cu 10.2106 10.3164 10
Cu 12.7633 10.3164 10
Cu 15.3159 10.3164 10
Cu 12.755 0.4722 12.3142
Cu 2.68616 0.138469 12.083
Cu 5.0668 0.287705 12.0838
Cu 8.03134 0.0861944 13.6332
Cu 10.171 0.163212 12.6609
Cu 1.39525 2.43209 12.2608
Cu 3.8217 2.34367 12.9282
Cu 6.56592 1.72737 12.2195
Cu 8.95903 1.93834 12.2365
Cu 11.6157 2.19327 12.1145
Cu 2.82734 4.58253 11.9934
Cu 5.32573 4.21319 12.9601
Cu 7.65828 4.06996 12.4055
Cu 10.1735 4.25226 12.4645
Cu 12.5691 4.4859 12.1894
Cu 4.05629 6.46816 12.4858
Cu 6.2921 6.59472 12.9649
Cu 9.02289 6.85559 12.1784
Cu 11.4849 6.58778 12.1723
Cu 14.2016 6.72126 12.1514
Cu 17.6377 8.98289 12.1866
Cu 7.92459 9.62632 13.5926
Cu 10.1534 8.95805 12.3822
Cu 12.5133 8.77266 12.026
Cu 14.9087 9.07541 12.6452
Cu 1.92512 0.574711 15.4331
Cu 3.83858 0.285757 14.4492
Cu 6.61239 0.611425 15.3969
Cu 9.31513 0.776849 16.1569
Cu 11.7613 0.52839 14.7519
Cu 2.69131 2.72363 15.0498
Cu 5.17764 2.87654 15.3315
Cu 7.8004 2.44974 14.6405
Cu 10.2527 3.06437 14.6827
Cu 12.9277 2.78536 14.6958
Cu 3.63759 5.03474 14.4646
Cu 6.75442 5.00721 14.9986
Cu 8.78034 5.06508 14.2111
Cu 11.513 5.00247 14.5591
Cu 13.8801 4.53226 15.3777
Cu 5.25363 6.75263 15.2234
Cu 8.18967 7.43374 14.7406
Cu 10.54 7.23116 14.3995
Cu 13.3472 6.8837 14.3063
Cu 15.5437 7.42033 14.7861
Cu 5.45186 9.23873 14.8136
Cu 9.86181 9.46178 15.4513
Cu 11.9626 9.50152 14.1213
Cu 13.7614 8.95835 15.5893
Cu 15.9401 9.93571 14.7382
Cu 12.4554 1.254 16.8021
Cu 1.8056 0.885902 18.3441
Cu 4.83895 0.776832 17.3885
Cu 7.41106 1.40106 17.7997
Cu 10.1893 1.77502 17.9495
Cu 14.0874 2.80368 17.5206
Cu 3.81989 3.49786 17.0736
Cu 6.43842 3.35815 17.1856
Cu 8.73044 3.24984 16.6748
Cu 11.7043 3.67345 17.051
Cu 15.2929 5.77066 16.8061
Cu 5.17973 5.62083 17.0016
Cu 7.72253 5.46609 17.5425
Cu 10.0419 5.59763 16.4742
Cu 13.084 5.74324 17.3126
Cu 16.7679 8.43178 16.764
Cu 6.32812 7.99282 17.2929
Cu 8.91197 8.12587 17.548
Cu 11.9373 8.21873 16.6777
Cu 14.4771 8.09017 17.8627
Cu 17.7757 10.5188 17.4199
Cu 7.61601 10.1077 16.7592
Cu 10.2198 9.77698 17.8914
Cu 13.244 10.2554 17.7212
Cu 15.5012 10.2518 18.1991
Cu 12.7762 0.289074 19.7136
Cu 2.51995 0.478761 20.739
Cu 11.3149 11.0657 20.2036
Cu 13.9362 10.8473 20.0582
Cu 10.4532 0.288192 20.9285
Cu 14.2499 2.63834 20.3425
Cu 4.01448 1.80397 19.4518
Cu 6.17697 2.08025 20.537
Cu 8.8529 2.15225 20.2704
Cu 11.8463 2.41813 19.5816
Cu 15.0276 4.58376 19.1638
Cu 4.77117 4.28029 19.4713
Cu 7.38245 3.92122 19.6075
Cu 9.64558 4.35281 19.3571
Cu 12.3819 4.69405 19.4995
Cu 16.2905 6.82142 19.0087
Cu 6.18503 6.66371 19.3161
Cu 8.60615 6.84974 19.4247
Cu 10.9858 6.93173 18.8471
Cu 13.7344 6.67787 19.7828
Cu 17.8809 9.34627 19.545
Cu 7.41239 9.10715 19.05
Cu 9.97825 8.97224 20.0702
Cu 12.1999 8.81035 19.3425
Cu 15.3239 8.69726 20.4173
C 7.42379 10.5837 25.3416
H 6.80635 10.3261 24.3953
H 8.57444 11.0884 25.2724
H 6.85336 9.71297 26.3257
H 0.71368 0.712898 25.5993
130
 Atoms. Timestep: 1000
Cu 12.7633 1.47378 10
Cu 2.55266 1.47378 10
Cu 5.10531 1.47378 10
Cu 7.65797 1.47378 10
Cu 10.2106 1.47378 10
Cu 14.0396 3.68444 10
Cu 3.82898 3.68444 10
Cu 6.38164 3.68444 10
Cu 8.93429 3.68444 10
Cu 11.4869 3.68444 10
Cu 15.3159 5.89511 10
Cu 5.10531 5.89511 10
Cu 7.65797 5.89511 10
Cu 10.2106 5.89511 10
Cu 12.7633 5.89511 10
Cu 16.5923 8.10577 10
Cu 6.38164 8.10577 10
Cu 8.93429 8.10577 10
Cu 11.4869 8.10577 10
Cu 14.0396 8.10577 10
Cu 17.8686 10.3164 10
Cu 7.65797 10.3164 10
Cu 10.2106 10.3164 10
Cu 12.7633 10.3164 10
Cu 15.3159 10.3164 10
Cu 6.60253 10.1133 12.1373
Cu 2.46282 0.165919 12.1819
Cu 11.4548 10.9751 12.2461
Cu 8.32391 0.253994 13.6086
Cu 16.9077 10.9416 11.9105
Cu 1.42946 2.19541 12.2883
Cu 4.01081 2.10391 12.6973
Cu 6.69263 1.70792 12.1755
Cu 9.52647 2.17522 12.5018
Cu 11.756 2.56504 12.5209
Cu 15.1018 4.24055 12.1349
Cu 5.1012 4.33951 12.8637
Cu 7.62785 4.45317 12.1841
Cu 10.1209 4.65736 11.7751
Cu 12.9044 4.76766 12.5923
Cu 3.80341 6.38588 12.6469
Cu 6.60855 7.06599 12.8212
Cu 8.59039 6.6353 12.0824
Cu 11.4637 6.85542 12.0404
Cu 13.9696 6.86944 12.0312
Cu 17.3431 8.37588 12.1922
Cu 8.07586 9.98478 14.4522
Cu 10.033 9.05056 12.3466
Cu 12.6786 9.20849 12.1294
Cu 15.0634 9.33889 11.9741
Cu 1.44343 0.699989 15.6001
Cu 4.35673 0.499575 14.5164
Cu 6.28288 0.208607 15.7503
Cu 9.30309 0.925973 16.0458
Cu 11.5468 0.31249 14.77
Cu 2.52817 2.8204 14.8238
Cu 5.23641 2.77921 14.9773
Cu 7.68389 2.9153 14.5612
Cu 10.4075 2.49898 14.6597
Cu 12.8812 2.74391 14.6914
Cu 3.55348 4.89058 14.9111
Cu 6.31169 4.7968 15.3331
Cu 9.16195 5.06162 14.0728
Cu 11.7746 4.8597 14.9369
Cu 14.0776 4.83916 15.7591
Cu 5.18904 6.89132 15.1596
Cu 7.72323 6.93591 15.6445
Cu 10.5094 7.22212 14.2581
Cu 12.9908 6.95671 14.4599
Cu 15.5002 7.14405 14.8319
Cu 5.99019 9.28166 14.0453
Cu 9.69906 9.21049 16.1608
Cu 12.021 9.17561 14.7814
Cu 14.4039 9.00075 16.0065
Cu 16.2519 9.70327 14.6184
Cu 12.8211 1.5534 17.3739
Cu 1.84269 0.245544 19.0403
Cu 4.9552 1.24359 17.1935
Cu 7.81904 1.11559 18.2976
Cu 10.0411 2.54068 18.2103
Cu 14.5519 3.22868 17.3859
Cu 3.95943 3.5366 17.3475
Cu 6.18706 3.13363 17.813
Cu 8.33698 3.45011 16.8559
Cu 11.9794 3.65297 17.5067
Cu 15.629 6.18204 17.2112
Cu 5.0643 5.51198 17.6729
Cu 7.42008 5.44656 17.5311
Cu 9.91606 5.86608 16.3762
Cu 12.6988 5.66302 17.6667
Cu 16.6911 8.37306 17.1111
Cu 6.31699 7.63658 17.2489
Cu 9.07635 7.46316 17.6392
Cu 11.4966 7.7861 16.8186
Cu 14.033 7.8864 18.2179
Cu 17.9937 10.5218 17.4943
Cu 7.54785 9.85906 17.0573
Cu 10.1846 10.4423 18.641
Cu 12.326 9.85127 17.4281
Cu 15.7433 10.4716 18.7462
Cu 12.6185 0.535161 20.6349
Cu 2.68799 0.697605 21.3372
Cu 4.77851 0.00806644 20.5276
Cu 13.6455 10.8644 20.5334
Cu 16.2342 10.5879 21.0207
Cu 14.0602 2.66393 20.4465
Cu 3.27405 2.35748 19.3902
Cu 5.65314 2.14741 20.8594
Cu 9.19519 1.6604 20.3559
Cu 11.8053 2.73076 20.0529
Cu 15.3406 4.68039 19.2538
Cu 5.13945 4.15798 19.7603
Cu 7.64514 3.88838 19.7987
Cu 10.1797 4.35374 19.8357
Cu 12.8982 4.831 19.7724
Cu 16.531 6.86622 19.436
Cu 6.28281 6.42743 19.7143
Cu 8.54091 6.1338 19.6409
Cu 11.0159 6.47688 19.4822
Cu 14.3153 6.43046 20.143
Cu 17.4852 9.09757 19.668
Cu 7.67719 9.08612 19.5986
Cu 9.62288 8.62522 20.6962
Cu 12.1817 8.79523 19.7974
Cu 14.9784 8.94446 20.1174
C 6.86199 10.0333 22.215
H 6.70248 9.22057 22.9405
H 7.95714 10.1046 22.693
H 6.43327 11.1161 22.542
H 5.76388 9.76271 21.0476
130
 Atoms. Timestep: 1200
Cu 12.7633 1.47378 10
Cu 2.55266 1.47378 10
Cu 5.10531 1.47378 10
Cu 7.65797 1.47378 10
Cu 10.2106 1.47378 10
Cu 14.0396 3.68444 10
Cu 3.82898 3.68444 10
Cu 6.38164 3.68444 10
Cu 8.93429 3.68444 10
Cu 11.4869 3.68444 10
Cu 15.3159 5.89511 10
Cu 5.10531 5.89511 10
Cu 7.65797 5.89511 10
Cu 10.2106 5.89511 10
Cu 12.7633 5.89511 10
Cu 16.5923 8.10577 10
Cu 6.38164 8.10577 10
Cu 8.93429 8.10577 10
Cu 11.4869 8.10577 10
Cu 14.0396 8.10577 10
Cu 17.8686 10.3164 10
Cu 7.65797 10.3164 10
Cu 10.2106 10.3164 10
Cu 12.7633 10.3164 10
Cu 15.3159 10.3164 10
Cu 7.20228 9.1183 11.8955
Cu 8.86047 10.879 12.4292
Cu 11.3173 10.8546 12.11
Cu 8.6446 0.0994197 13.7979
Cu 10.6766 0.28945 12.546
Cu 1.23594 1.91199 12.5267
Cu 3.80826 2.1294 11.7356
Cu 6.19778 2.00268 12.5799
Cu 8.81018 2.35567 12.0408
Cu 11.5209 2.41142 12.5356
Cu 2.84464 3.97356 13.0216
Cu 5.46084 4.55226 12.7916
Cu 7.60692 4.74295 12.1408
Cu 10.7227 4.35697 12.401
Cu 12.9459 4.88961 13.2894
Cu 3.69982 6.31989 12.7767
Cu 6.77148 6.92884 12.8899
Cu 9.15955 6.67614 12.5783
Cu 11.6913 7.06238 12.211
Cu 14.0611 6.72643 12.4802
Cu 17.6449 8.47581 12.2549
Cu 8.82912 9.44404 14.2769
Cu 9.99313 8.89458 12.459
Cu 12.9192 8.87545 13.0658
Cu 15.3369 8.89943 12.3427
Cu 1.0913 0.944657 16.1182
Cu 3.87987 0.156891 14.8287
Cu 7.10225 0.519603 15.5395
Cu 9.12026 0.669119 16.3163
Cu 11.4624 0.390808 14.7524
Cu 2.84316 2.52919 14.5773
Cu 5.42024 2.18396 14.7011
Cu 7.64117 3.18484 13.7349
Cu 10.4759 2.67916 15.2387
Cu 12.9969 2.91809 14.9139
Cu 3.95211 5.09468 14.8808
Cu 6.35279 4.49838 15.8894
Cu 9.21304 4.59303 14.4159
Cu 11.6021 4.84557 15.335
Cu 14.2203 5.32539 15.146
Cu 5.06917 7.27547 15.3822
Cu 7.7596 6.61514 15.0289
Cu 9.94874 7.49575 14.8589
Cu 12.3055 7.09998 14.5294
Cu 14.9663 7.58696 14.8274
Cu 6.30876 8.90593 14.7235
Cu 9.8466 9.7243 16.6208
Cu 11.9369 9.35451 15.149
Cu 14.4416 9.57652 16.3706
Cu 16.6343 8.9431 14.3101
Cu 12.3225 1.24357 18.4236
Cu 1.35382 0.0846939 19.3298
Cu 4.3447 1.05316 17.1172
Cu 7.59103 1.37859 18.3337
Cu 9.94937 2.13557 17.9824
Cu 14.2737 3.12926 17.1951
Cu 4.24647 3.30143 16.5039
Cu 6.22457 3.39612 18.0883
Cu 8.51597 3.34954 16.1135
Cu 11.5714 3.889 17.444
Cu 15.2418 6.26329 17.1492
Cu 4.95377 5.77149 17.6939
Cu 7.70379 5.62683 17.932
Cu 9.59122 5.25854 16.9379
Cu 12.9103 5.71884 17.6967
Cu 16.0759 8.45251 17.8087
Cu 5.92988 8.07453 17.9863
Cu 8.96025 7.79212 18.5471
Cu 11.1386 7.00746 16.893
Cu 13.4677 8.1727 17.9657
Cu 18.0715 10.3087 16.7597
Cu 7.59411 9.73271 17.3568
Cu 9.74556 10.1955 18.8417
Cu 12.1254 9.81627 17.466
Cu 9.84054 0.0114629 18.5239
Cu 12.2363 0.187219 21.0269
Cu 2.51289 0.776351 21.3518
Cu 11.1249 10.5327 21.151
Cu 7.26535 0.207808 20.4576
Cu 16.1911 10.3328 21.2975
Cu 13.8426 2.2005 20.1222
Cu 3.69858 2.15334 19.4703
Cu 5.72547 1.9072 20.3197
Cu 9.24219 1.55083 20.3406
Cu 11.2377 2.19644 20.2137
Cu 2.65288 4.50613 19.7975
Cu 5.16606 4.38578 19.863
Cu 8.38397 3.51092 19.5607
Cu 10.5952 4.33855 19.8963
Cu 12.8935 4.56768 20.08
Cu 3.83711 6.49455 19.9382
Cu 6.23241 6.58651 19.9711
Cu 8.98297 5.99533 20.4651
Cu 11.2526 6.70819 19.2977
Cu 13.7968 6.66315 20.6492
Cu 17.7848 9.25055 19.7691
Cu 7.23496 8.6902 19.7775
Cu 10.1101 8.41054 20.6758
Cu 12.447 8.79307 20.1189
Cu 14.7508 9.07205 19.9076
C 7.06183 8.03629 21.4957
H 6.51695 8.31383 22.4489
H 8.01797 8.02458 21.8539
H 7.06993 10.0556 21.5011
H 1.54424 0.39812 22.846
130
 Atoms. Timestep: 1400
Cu 12.7633 1.47378 10
Cu 2.55266 1.47378 10
Cu 5.10531 1.47378 10
Cu 7.65797 1.47378 10
Cu 10.2106 1.47378 10
Cu 14.0396 3.68444 10
Cu 3.82898 3.68444 10
Cu 6.38164 3.68444 10
Cu 8.93429 3.68444 10
Cu 11.4869 3.68444 10
Cu 15.3159 5.89511 10
Cu 5.10531 5.89511 10
Cu 7.65797 5.89511 10
Cu 10.2106 5.89511 10
Cu 12.7633 5.89511 10
Cu 16.5923 8.10577 10
Cu 6.38164 8.10577 10
Cu 8.93429 8.10577 10
Cu 11.4869 8.10577 10
Cu 14.0396 8.10577 10
Cu 17.8686 10.3164 10
Cu 7.65797 10.3164 10
Cu 10.2106 10.3164 10
Cu 12.7633 10.3164 10
Cu 15.3159 10.3164 10
Cu 8.16599 8.32237 12.1823
Cu 2.39569 0.0277341 12.0246
Cu 5.35 0.019684 12.2942
Cu 15.2171 10.9499 14.2465
Cu 16.7227 10.3543 12.2832
Cu 13.9048 2.42205 12.6918
Cu 3.61437 2.12917 12.6844
Cu 6.26076 2.33141 11.7518
Cu 8.85585 2.03114 12.1567
Cu 11.5576 2.04846 12.3507
Cu 2.59722 4.40705 12.9395
Cu 5.33562 4.14762 13.0143
Cu 7.94155 4.26293 11.9698
Cu 10.3849 4.37878 12.1878
Cu 12.6914 4.22461 13.0615
Cu 4.23052 6.88183 12.6011
Cu 6.42229 6.42162 12.681
Cu 9.39589 6.60607 12.7057
Cu 11.7221 6.45708 12.1226
Cu 14.4253 6.25019 11.8574
Cu 5.67828 8.91984 11.9811
Cu 9.0185 9.0173 14.5076
Cu 10.7476 8.78066 12.0414
Cu 13.3244 9.84214 13.6776
Cu 15.2164 8.58161 12.3333
Cu 0.736625 0.816447 16.8394
Cu 9.92446 10.8639 14.3162
Cu 6.81422 0.696185 15.3806
Cu 10.0941 0.64788 16.1628
Cu 11.8471 0.955564 14.4835
Cu 2.6249 2.08201 14.8923
Cu 5.03559 2.41296 14.4684
Cu 7.33653 2.89377 14.1421
Cu 10.7267 2.84305 15.5723
Cu 13.2556 2.69997 15.0157
Cu 4.21473 5.21422 14.7928
Cu 6.46305 4.74304 15.7141
Cu 9.2942 4.8248 14.5661
Cu 11.5246 4.93312 15.3885
Cu 14.4592 4.93501 15.3005
Cu 4.69269 7.07841 15.9234
Cu 7.68349 6.61281 15.104
Cu 9.76574 7.50546 15.9489
Cu 12.2381 7.26224 14.6006
Cu 14.326 7.90189 15.5041
Cu 6.67984 8.76415 15.4392
Cu 9.98385 9.4776 17.0117
Cu 11.7582 9.73365 15.4885
Cu 14.3378 10.1433 16.3987
Cu 17.1835 9.45353 14.4482
Cu 11.6798 0.714554 18.0451
Cu 7.06451 10.9727 19.3742
Cu 3.94287 0.887832 16.9069
Cu 7.65192 0.985474 17.7723
Cu 9.62186 2.28517 17.9673
Cu 14.43 3.15466 17.1619
Cu 3.79834 3.438 16.6992
Cu 5.8666 3.36356 17.8314
Cu 7.82129 2.48835 16.3618
Cu 11.9632 3.51348 17.6407
Cu 15.524 6.19138 16.9858
Cu 4.78188 5.58374 17.8666
Cu 7.0194 5.66574 18.4684
Cu 9.41796 4.86175 17.5292
Cu 13.4743 5.33747 17.64
Cu 16.064 8.09088 18.0281
Cu 5.60359 8.15888 17.7482
Cu 9.34586 7.62183 18.2283
Cu 11.4744 6.64724 17.0509
Cu 13.4201 7.70518 17.7324
Cu 17.8938 10.1572 16.5143
Cu 7.61333 9.45554 17.4055
Cu 9.94252 10.3134 19.5778
Cu 12.3997 10.7795 18.0121
Cu 15.9328 11.0039 18.3707
Cu 6.32782 10.7538 21.5632
Cu 2.50045 0.354787 21.1389
Cu 11.2293 10.7025 21.4468
Cu 13.2004 10.8534 20.535
Cu 16.3895 10.8855 21.6253
Cu 13.5961 2.11406 19.2937
Cu 3.46545 2.04718 18.914
Cu 6.43598 2.13239 19.6166
Cu 8.51611 1.41068 20.3873
Cu 11.3872 2.29307 20.6436
Cu 2.48293 4.08416 19.5371
Cu 5.20515 4.24048 20.0383
Cu 7.88166 3.67306 19.0102
Cu 10.2164 4.50317 19.6787
Cu 12.6014 4.2476 19.7906
Cu 16.1844 6.32866 19.6492
Cu 6.0427 6.9397 20.564
Cu 8.95848 6.35131 20.7547
Cu 11.557 6.64277 19.1923
Cu 13.2986 6.78797 20.591
Cu 17.821 9.26305 19.5061
Cu 7.76911 8.79341 20.8095
Cu 10.4435 8.04754 20.6548
Cu 12.5273 8.69903 19.8777
Cu 14.9647 9.32746 19.8747
C 7.44709 5.50209 21.5037
H 6.96381 4.62133 20.9546
H 7.58945 5.76633 22.5486
H 6.45418 9.6152 22.6766
H 14.0269 10.2194 21.5271
130
 Atoms. Timestep: 1600
Cu 12.7633 1.47378 10
Cu 2.55266 1.47378 10
Cu 5.10531 1.47378 10
Cu 7.65797 1.47378 10
Cu 10.2106 1.47378 10
Cu 14.0396 3.68444 10
Cu 3.82898 3.68444 10
Cu 6.38164 3.68444 10
Cu 8.93429 3.68444 10
Cu 11.4869 3.68444 10
Cu 15.3159 5.89511 10
Cu 5.10531 5.89511 10
Cu 7.65797 5.89511 10
Cu 10.2106 5.89511 10
Cu 12.7633 5.89511 10
Cu 16.5923 8.10577 10
Cu 6.38164 8.10577 10
Cu 8.93429 8.10577 10
Cu 11.4869 8.10577 10
Cu 14.0396 8.10577 10
Cu 17.8686 10.3164 10
Cu 7.65797 10.3164 10
Cu 10.2106 10.3164 10
Cu 12.7633 10.3164 10
Cu 15.3159 10.3164 10
Cu 8.11502 8.19568 12.1644
Cu 8.99192 10.5572 12.107
Cu 5.49948 0.283648 12.0209
Cu 15.5382 10.6187 14.2254
Cu 16.5437 10.5748 11.9956
Cu 13.9114 2.08066 12.3718
Cu 3.59633 2.25403 12.3932
Cu 6.75475 2.01524 12.0896
Cu 9.49854 1.58152 13.0583
Cu 11.5021 2.00072 11.8053
Cu 2.8175 4.47216 12.7881
Cu 5.24556 4.36156 12.2809
Cu 7.77889 4.63292 12.728
Cu 9.84213 4.0236 12.0086
Cu 12.3387 3.8709 12.9839
Cu 3.97362 6.75447 12.3838
Cu 6.56379 6.42607 12.1802
Cu 9.83938 6.52738 13.5013
Cu 11.6231 6.34963 12.0089
Cu 13.7967 6.51376 12.6154
Cu 6.05909 9.53699 12.5412
Cu 9.40625 8.60196 14.4427
Cu 10.7835 8.99247 12.6429
Cu 13.3519 9.65642 14.0023
Cu 14.6562 8.73771 12.5183
Cu 1.25055 0.302804 16.7866
Cu 4.0548 0.297728 14.0295
Cu 6.08709 0.85348 15.0935
Cu 10.0661 0.968902 16.1401
Cu 12.2045 0.503223 13.7378
Cu 2.11961 1.97085 14.8473
Cu 4.83071 2.7486 15.1394
Cu 7.51333 2.5139 14.2889
Cu 10.2157 3.30922 15.6503
Cu 12.3463 2.78265 15.0538
Cu 4.05176 5.18851 14.557
Cu 6.26824 4.77659 15.4692
Cu 8.91634 4.64751 14.4139
Cu 12.0633 5.38017 14.7813
Cu 14.2989 4.50322 15.17
Cu 17.0098 7.58775 15.3214
Cu 7.62111 6.56686 14.6217
Cu 9.70713 6.98151 16.0325
Cu 12.0863 7.6539 13.9066
Cu 14.2796 7.70505 15.392
Cu 6.55662 8.80745 15.1861
Cu 10.1041 9.34796 17.0153
Cu 12.0372 9.31732 15.8724
Cu 14.3564 9.89566 16.721
Cu 17.447 9.49556 14.02
Cu 11.3199 0.853194 18.4593
Cu 6.73804 10.2668 19.4791
Cu 3.84173 0.716248 16.2056
Cu 7.30207 1.43745 17.9435
Cu 9.79933 2.90884 18.089
Cu 1.71841 2.86444 17.1703
Cu 3.61469 3.88013 16.5367
Cu 5.72453 2.61884 17.0939
Cu 8.08136 3.37153 16.4178
Cu 12.0447 3.03747 17.3208
Cu 15.5836 6.22742 16.5778
Cu 4.94353 5.46165 18.1187
Cu 7.71457 5.78455 18.0736
Cu 9.52138 4.77995 17.0253
Cu 13.7044 5.17822 18.1588
Cu 16.2469 8.18454 17.5442
Cu 5.99574 7.5896 17.6531
Cu 9.56279 6.8034 18.46
Cu 11.9898 6.61123 16.9052
Cu 14.1075 7.91855 18.0841
Cu 17.9583 9.6105 17.1788
Cu 8.02878 9.04972 17.6749
Cu 9.64386 10.2919 19.5016
Cu 5.5189 0.0958424 18.1429
Cu 16.1204 10.2321 18.8888
Cu 6.50143 10.505 22.1461
Cu 2.06644 0.452828 20.7199
Cu 10.6296 10.8517 21.7432
Cu 13.5285 10.787 20.4306
Cu 10.7661 0.127847 21.2666
Cu 13.4146 1.70114 19.3484
Cu 3.45817 1.64559 18.757
Cu 5.29513 1.73362 19.8054
Cu 8.90809 1.82626 20.1263
Cu 11.1615 2.15616 20.3784
Cu 2.78789 4.30718 18.6269
Cu 4.57757 3.67166 19.9581
Cu 7.4685 3.60857 19.0059
Cu 9.65386 4.11693 20.0893