
     Program PWSCF v.7.2 starts on 30Dec2023 at 14: 0:11 

     This program is part of the open-source Quantum ESPRESSO suite
     for quantum simulation of materials; please cite
         "P. Giannozzi et al., J. Phys.:Condens. Matter 21 395502 (2009);
         "P. Giannozzi et al., J. Phys.:Condens. Matter 29 465901 (2017);
         "P. Giannozzi et al., J. Chem. Phys. 152 154105 (2020);
          URL http://www.quantum-espresso.org", 
     in publications or presentations arising from this work. More details at
     http://www.quantum-espresso.org/quote

     Parallel version (MPI & OpenMP), running on       4 processor cores
     Number of MPI processes:                 4
     Threads/MPI process:                     1

     MPI processes distributed on     1 nodes
     504014 MiB available memory on the printing compute node when the environment starts
 
     Reading input from input_0009.inp

     Current dimensions of program PWSCF are:
     Max number of different atomic species (ntypx) = 10
     Max number of k-points (npk) =  40000
     Max angular momentum in pseudopotentials (lmaxx) =  4
     file O.pbe-n-kjpaw_psl.0.1.UPF: wavefunction(s)  2P renormalized

     gamma-point specific algorithms are used
 
     R & G space division:  proc/nbgrp/npool/nimage =       4
     Subspace diagonalization in iterative solution of the eigenvalue problem:
     a serial algorithm will be used

 
     Parallelization info
     --------------------
     sticks:   dense  smooth     PW     G-vecs:    dense   smooth      PW
     Min        6485    4324   1079              2728975  1485363  185656
     Max        6486    4326   1080              2728990  1485382  185664
     Sum       25943   17301   4319             10915929  5941483  742635
 
     Using Slab Decomposition
 


     bravais-lattice index     =            0
     lattice parameter (alat)  =      32.3352  a.u.
     unit-cell volume          =   51510.8153 (a.u.)^3
     number of atoms/cell      =          300
     number of atomic types    =            4
     number of electrons       =      1392.00
     number of Kohn-Sham states=          835
     kinetic-energy cutoff     =      90.0000  Ry
     charge density cutoff     =     540.0000  Ry
     scf convergence threshold =      1.0E-07
     mixing beta               =       0.2000
     number of iterations used =            8  plain     mixing
     Exchange-correlation= SLA  PW   PBX  PBC
                           (   1   4   3   4   0   0   0)

     GPU acceleration is ACTIVE.
     GPU-aware MPI enabled


     GPU used by master process:

        Device Number: 0
        Device name: NVIDIA PG506-243
        Compute capability : 80
        Ratio of single to double precision performance  : 2
        Memory Clock Rate (KHz): 1593000
        Memory Bus Width (bits): 4096
        Peak Memory Bandwidth (GB/s): ******

     celldm(1)=  32.335181  celldm(2)=   0.000000  celldm(3)=   0.000000
     celldm(4)=   0.000000  celldm(5)=   0.000000  celldm(6)=   0.000000

     crystal axes: (cart. coord. in units of alat)
               a(1) = (   1.000000   0.000000   0.000000 )  
               a(2) = (  -0.333333   0.577350   0.000000 )  
               a(3) = (   0.000000  -0.000000   2.638962 )  

     reciprocal axes: (cart. coord. in units 2 pi/alat)
               b(1) = (  1.000000  0.577350  0.000000 )  
               b(2) = ( -0.000000  1.732051  0.000000 )  
               b(3) = (  0.000000 -0.000000  0.378937 )  


     PseudoPot. # 1 for N  read from file:
     /leonardo_scratch/large/userexternal/uraucci0/Li_Cr/PPS/N.pbe-n-radius_5.UPF
     MD5 check sum: 16739722b17309cd8fe442a2ace49922
     Pseudo is Ultrasoft + core correction, Zval =  5.0
     Generated using "atomic" code by A. Dal Corso  v.5.1
     Using radial grid of 1085 points,  4 beta functions with: 
                l(1) =   0
                l(2) =   0
                l(3) =   1
                l(4) =   1
     Q(r) pseudized with 0 coefficients 


     PseudoPot. # 2 for Li read from file:
     /leonardo_scratch/large/userexternal/uraucci0/Li_Cr/PPS/li_pbe_v1.4.uspp.F.UPF
     MD5 check sum: e912e257baa3777c20ea3d68f190483c
     Pseudo is Ultrasoft, Zval =  3.0
     Generated by new atomic code, or converted to UPF format
     Using radial grid of  751 points,  5 beta functions with: 
                l(1) =   0
                l(2) =   0
                l(3) =   0
                l(4) =   1
                l(5) =   1
     Q(r) pseudized with 10 coefficients,  rinner =    1.150   1.150   1.150


     PseudoPot. # 3 for Cr read from file:
     /leonardo_scratch/large/userexternal/uraucci0/Li_Cr/PPS/cr_pbe_v1.5.uspp.F.UPF
     MD5 check sum: 0d52af634a40206e4dee301ad30da4bf
     Pseudo is Ultrasoft + core correction, Zval = 14.0
     Generated by new atomic code, or converted to UPF format
     Using radial grid of  857 points,  6 beta functions with: 
                l(1) =   0
                l(2) =   0
                l(3) =   1
                l(4) =   1
                l(5) =   2
                l(6) =   2
     Q(r) pseudized with  8 coefficients,  rinner =    0.950   0.950   0.950
                                                       0.950   0.950

     PseudoPot. # 4 for O  read from file:
     /leonardo_scratch/large/userexternal/uraucci0/Li_Cr/PPS/O.pbe-n-kjpaw_psl.0.1.UPF
     MD5 check sum: 0234752ac141de4415c5fc33072bef88
     Pseudo is Projector augmented-wave + core cor, Zval =  6.0
     Generated using "atomic" code by A. Dal Corso  v.5.0.99 svn rev. 10869
     Shape of augmentation charge: BESSEL
     Using radial grid of 1095 points,  4 beta functions with: 
                l(1) =   0
                l(2) =   0
                l(3) =   1
                l(4) =   1
     Q(r) pseudized with 0 coefficients 


     atomic species   valence    mass     pseudopotential
        N              5.00    14.00674     N ( 1.00)
        Li             3.00     6.94100     Li( 1.00)
        Cr            14.00    51.99610     Cr( 1.00)
        O              6.00    15.99940     O ( 1.00)

     No symmetry found


                                    s                        frac. trans.

      isym =  1     identity                                     

 cryst.   s( 1) = (     1          0          0      )
                  (     0          1          0      )
                  (     0          0          1      )

 cart.    s( 1) = (  1.0000000  0.0000000  0.0000000 )
                  (  0.0000000  1.0000000  0.0000000 )
                  (  0.0000000  0.0000000  1.0000000 )


   Cartesian axes

     site n.     atom                  positions (alat units)
         1           Li  tau(   1) = (   0.2593273   0.0873080   0.8766270  )
         2           Li  tau(   2) = (   0.1280588   0.1809300   0.8766270  )
         3           Li  tau(   3) = (   0.1126144   0.0204373   0.8766270  )
         4           Li  tau(   4) = (  -0.1049796   0.2149969   1.2954326  )
         5           Li  tau(   5) = (   0.0280075   0.0987421   1.2864442  )
         6           Li  tau(   6) = (   0.0189267   0.2317200   1.2702442  )
         7           Li  tau(   7) = (   0.0669942   0.0904568   1.0336250  )
         8           Li  tau(   8) = (   0.2214985   0.0127904   1.0336250  )
         9           Li  tau(   9) = (   0.2115073   0.1854282   1.0336250  )
        10           Li  tau(  10) = (   0.1030767   0.2074006   1.1119195  )
        11           Li  tau(  11) = (  -0.0428882   0.2624732   1.1267520  )
        12           Li  tau(  12) = (  -0.0502137   0.0997596   1.1213812  )
        13           Li  tau(  13) = (   0.0000000   0.0000000   0.9626942  )
        14           Li  tau(  14) = (  -0.0023598   0.0054232   1.2005172  )
        15           Cr  tau(  15) = (   0.1697910   0.1013036   1.2093127  )
        16           Cr  tau(  16) = (  -0.0000000   0.1924500   0.9478909  )
        17           N   tau(  17) = (   0.2704242   0.0944133   1.2331921  )
        18           N   tau(  18) = (   0.1619790   0.1009997   1.1061922  )
        19           N   tau(  19) = (  -0.0969339   0.1982778   0.9168466  )
        20           N   tau(  20) = (   0.0434200   0.1055885   0.9168466  )
        21           N   tau(  21) = (   0.0535141   0.2734837   0.9168466  )
        22           N   tau(  22) = (   0.1147674   0.0155745   1.2490882  )
        23           N   tau(  23) = (   0.1284773   0.1833828   1.2438402  )
        24           N   tau(  24) = (  -0.0000000   0.1924500   1.0497374  )
        25           O   tau(  25) = (   0.9891450   0.0033977   1.0872921  )
        26           Li  tau(  26) = (   0.2390983   0.0973950   1.3949005  )
        27           Li  tau(  27) = (   0.1256475   0.1852079   1.3707933  )
        28           Li  tau(  28) = (   0.1219096   0.0139492   1.3660770  )
        29           Li  tau(  29) = (  -0.0946412   0.1855276   1.7620436  )
        30           Li  tau(  30) = (   0.0479276   0.1110721   1.7847424  )
        31           Li  tau(  31) = (   0.0429076   0.2802343   1.7967054  )
        32           Li  tau(  32) = (   0.0773372   0.0916823   1.5178387  )
        33           Li  tau(  33) = (  -0.0992044   0.5566441   1.5342725  )
        34           Li  tau(  34) = (   0.2179365   0.1918282   1.5503615  )
        35           Li  tau(  35) = (   0.0803604   0.1937854   1.6294976  )
        36           Li  tau(  36) = (  -0.0643976   0.2719525   1.6061851  )
        37           Li  tau(  37) = (  -0.0286015   0.1074967   1.6170728  )
        38           Li  tau(  38) = (   0.6572657   0.5649855   1.4323851  )
        39           Li  tau(  39) = (   0.0184321   0.0058006   1.6969453  )
        40           Cr  tau(  40) = (   0.1623969   0.0996877   1.7188376  )
        41           Cr  tau(  41) = (   0.0007918   0.1870810   1.4409585  )
        42           N   tau(  42) = (   0.2657465   0.0785358   1.7471409  )
        43           N   tau(  43) = (   0.1384282   0.1049568   1.6175112  )
        44           N   tau(  44) = (  -0.0910634   0.1997412   1.4083304  )
        45           N   tau(  45) = (   0.0472536   0.0996754   1.4037720  )
        46           N   tau(  46) = (   0.0553492   0.2707234   1.4249279  )
        47           N   tau(  47) = (   0.1162904   0.0142065   1.7621721  )
        48           N   tau(  48) = (   0.1196146   0.1794251   1.7635221  )
        49           N   tau(  49) = (  -0.0022631   0.1839426   1.5418758  )
        50           O   tau(  50) = (   0.0153116   0.0055982   1.5661350  )
        51           Li  tau(  51) = (   0.0926606   0.3759836   0.8766270  )
        52           Li  tau(  52) = (  -0.0386079   0.4696050   0.8766270  )
        53           Li  tau(  53) = (  -0.0540524   0.3091127   0.8766270  )
        54           Li  tau(  54) = (  -0.2726438   0.4937695   1.2738792  )
        55           Li  tau(  55) = (  -0.1246324   0.3964768   1.2679532  )
        56           Li  tau(  56) = (  -0.0980712   0.5608490   1.2760241  )
        57           Li  tau(  57) = (  -0.0996725   0.3791318   1.0336250  )
        58           Li  tau(  58) = (   0.0548319   0.3014656   1.0336250  )
        59           Li  tau(  59) = (   0.0448406   0.4741032   1.0336250  )
        60           Li  tau(  60) = (  -0.0691039   0.4788101   1.1228247  )
        61           Li  tau(  61) = (  -0.2297096   0.5737208   1.1211124  )
        62           Li  tau(  62) = (  -0.1920888   0.3873937   1.1096227  )
        63           Li  tau(  63) = (  -0.1666667   0.2886750   0.9626942  )
        64           Li  tau(  64) = (   0.8180741   0.2849698   1.1952283  )
        65           Cr  tau(  65) = (  -0.0032436   0.3812667   1.2042517  )
        66           Cr  tau(  66) = (  -0.1666667   0.4811250   0.9478909  )
        67           N   tau(  67) = (   0.0994574   0.3824817   1.2381245  )
        68           N   tau(  68) = (   0.0041082   0.3769274   1.1056662  )
        69           N   tau(  69) = (  -0.2636006   0.4869528   0.9168466  )
        70           N   tau(  70) = (  -0.1232467   0.3942641   0.9168466  )
        71           N   tau(  71) = (  -0.1131527   0.5621587   0.9168466  )
        72           N   tau(  72) = (  -0.0623136   0.3026134   1.2391940  )
        73           N   tau(  73) = (  -0.0451988   0.4665543   1.2247180  )
        74           N   tau(  74) = (  -0.1666667   0.4811250   1.0497374  )
        75           O   tau(  75) = (   0.8279040   0.2912096   1.0795194  )
        76           Li  tau(  76) = (   0.0860719   0.3765504   1.3684614  )
        77           Li  tau(  77) = (  -0.0544876   0.4573018   1.3718335  )
        78           Li  tau(  78) = (  -0.0519379   0.3067283   1.3648439  )
        79           Li  tau(  79) = (   0.7237549   0.4717463   1.7859170  )
        80           Li  tau(  80) = (  -0.1324239   0.3735366   1.7803885  )
        81           Li  tau(  81) = (  -0.1121697   0.5561029   1.7754852  )
        82           Li  tau(  82) = (  -0.0906806   0.3735173   1.5146185  )
        83           Li  tau(  83) = (   0.0451620   0.2967599   1.5370836  )
        84           Li  tau(  84) = (   0.0312458   0.4783975   1.5188906  )
        85           Li  tau(  85) = (  -0.1112679   0.4500661   1.6379833  )
        86           Li  tau(  86) = (   0.1092780   0.0013805   1.6061501  )
        87           Li  tau(  87) = (   0.7735181   0.3864020   1.5944617  )
        88           Li  tau(  88) = (   0.8287339   0.2899239   1.4461481  )
        89           Li  tau(  89) = (   0.8261800   0.2777201   1.6942336  )
        90           Cr  tau(  90) = (  -0.0064030   0.3832847   1.7018076  )
        91           Cr  tau(  91) = (  -0.1765644   0.4749226   1.4418351  )
        92           N   tau(  92) = (   0.0894060   0.3725244   1.7444760  )
        93           N   tau(  93) = (  -0.0018107   0.3915121   1.5959286  )
        94           N   tau(  94) = (  -0.2670399   0.4846987   1.3998973  )
        95           N   tau(  95) = (  -0.1248247   0.3876702   1.4083889  )
        96           N   tau(  96) = (  -0.1195123   0.5484167   1.3983720  )
        97           N   tau(  97) = (  -0.0573257   0.2978118   1.7368610  )
        98           N   tau(  98) = (  -0.0573973   0.4504781   1.7427578  )
        99           N   tau(  99) = (  -0.1806565   0.4797277   1.5417764  )
       100           O   tau( 100) = (  -0.1684439   0.3017046   1.5651122  )
       101           Li  tau( 101) = (   0.5926583   0.0873080   0.8766270  )
       102           Li  tau( 102) = (   0.4613921   0.1809300   0.8766270  )
       103           Li  tau( 103) = (   0.4459477   0.0204373   0.8766270  )
       104           Li  tau( 104) = (   0.2374531   0.2044867   1.2741656  )
       105           Li  tau( 105) = (   0.3634612   0.1269934   1.2905410  )
       106           Li  tau( 106) = (   0.3709669   0.2759978   1.2910845  )
       107           Li  tau( 107) = (   0.4003275   0.0904568   1.0336250  )
       108           Li  tau( 108) = (   0.5548318   0.0127904   1.0336250  )
       109           Li  tau( 109) = (   0.5448406   0.1854282   1.0336250  )
       110           Li  tau( 110) = (   0.4099943   0.1909708   1.1298786  )
       111           Li  tau( 111) = (   0.2875488   0.2839938   1.1197390  )
       112           Li  tau( 112) = (   0.2844912   0.0915000   1.1171617  )
       113           Li  tau( 113) = (   0.3333333   0.0000000   0.9626942  )
       114           Li  tau( 114) = (   0.3394107   0.0083079   1.1884432  )
       115           Cr  tau( 115) = (   0.4931190   0.1014520   1.2111303  )
       116           Cr  tau( 116) = (   0.3333333   0.1924500   0.9478909  )
       117           N   tau( 117) = (   0.5941602   0.0987614   1.2464116  )
       118           N   tau( 118) = (   0.4985839   0.1040515   1.1057071  )
       119           N   tau( 119) = (   0.2363994   0.1982778   0.9168466  )
       120           N   tau( 120) = (   0.3767532   0.1055885   0.9168466  )
       121           N   tau( 121) = (   0.3868473   0.2734837   0.9168466  )
       122           N   tau( 122) = (   0.4463925   0.0170991   1.2493921  )
       123           N   tau( 123) = (   0.4502268   0.1851793   1.2442142  )
       124           N   tau( 124) = (   0.3333333   0.1924500   1.0497374  )
       125           O   tau( 125) = (  -0.0178220   0.5777340   1.0695784  )
       126           Li  tau( 126) = (   0.3283623   0.5732445   1.4437286  )
       127           Li  tau( 127) = (   0.4568407   0.1896828   1.3772862  )
       128           Li  tau( 128) = (   0.5831726   0.0821101   1.3821076  )
       129           Li  tau( 129) = (   0.2265771   0.2062142   1.7962320  )
       130           Li  tau( 130) = (   0.3735173   0.1012270   1.7851807  )
       131           Li  tau( 131) = (   0.3877981   0.2789158   1.7893359  )
       132           Li  tau( 132) = (   0.3682850   0.0763215   1.5162607  )
       133           Li  tau( 133) = (   0.0972799   0.5674400   1.6143319  )
       134           Li  tau( 134) = (   0.5233685   0.1554318   1.5150627  )
       135           Li  tau( 135) = (   0.4421233   0.1975304   1.6309002  )
       136           Li  tau( 136) = (   0.2605820   0.2951673   1.6420509  )
       137           Li  tau( 137) = (   0.2805820   0.0961905   1.6223794  )
       138           Li  tau( 138) = (   0.4381411   0.0191708   1.3554523  )
       139           Li  tau( 139) = (  -0.0066233   0.5687386   1.6964660  )
       140           Cr  tau( 140) = (   0.5070966   0.1007922   1.7140395  )
       141           Cr  tau( 141) = (   0.3293967   0.2006079   1.4450085  )
       142           N   tau( 142) = (   0.6052583   0.1012422   1.7379480  )
       143           N   tau( 143) = (   0.4954590   0.0893844   1.6151560  )
       144           N   tau( 144) = (   0.2317416   0.2084607   1.4171142  )
       145           N   tau( 145) = (   0.3586357   0.1048820   1.4039005  )
       146           N   tau( 146) = (   0.3855557   0.2716947   1.4155538  )
       147           N   tau( 147) = (   0.4540583   0.0190808   1.7531838  )
       148           N   tau( 148) = (   0.4474555   0.1850279   1.7457208  )
       149           N   tau( 149) = (   0.3289174   0.1952026   1.5509693  )
       150           O   tau( 150) = (   0.3292441   0.0064463   1.5790097  )
       151           Li  tau( 151) = (   0.4259940   0.3759836   0.8766270  )
       152           Li  tau( 152) = (   0.2947255   0.4696050   0.8766270  )
       153           Li  tau( 153) = (   0.2792811   0.3091127   0.8766270  )
       154           Li  tau( 154) = (   0.0633468   0.4833721   1.2687364  )
       155           Li  tau( 155) = (   0.1980330   0.4085006   1.2768598  )
       156           Li  tau( 156) = (   0.2171148   0.5553134   1.2801676  )
       157           Li  tau( 157) = (   0.2336608   0.3791318   1.0336250  )
       158           Li  tau( 158) = (   0.3881652   0.3014656   1.0336250  )
       159           Li  tau( 159) = (   0.3781739   0.4741032   1.0336250  )
       160           Li  tau( 160) = (   0.2581777   0.4877786   1.1268923  )
       161           Li  tau( 161) = (   0.1211685   0.5541574   1.1417832  )
       162           Li  tau( 162) = (   0.1108366   0.4002603   1.1211708  )
       163           Li  tau( 163) = (   0.1666667   0.2886750   0.9626942  )
       164           Li  tau( 164) = (   0.1708102   0.2757103   1.1921893  )
       165           Cr  tau( 165) = (   0.3310658   0.3864791   1.2050406  )
       166           Cr  tau( 166) = (   0.1666667   0.4811250   0.9478909  )
       167           N   tau( 167) = (   0.4232665   0.3735535   1.2455291  )
       168           N   tau( 168) = (   0.3311698   0.3944021   1.1062039  )
       169           N   tau( 169) = (   0.0697328   0.4869528   0.9168466  )
       170           N   tau( 170) = (   0.2100866   0.3942641   0.9168466  )
       171           N   tau( 171) = (   0.2201806   0.5621587   0.9168466  )
       172           N   tau( 172) = (   0.2685009   0.3169100   1.2422038  )
       173           N   tau( 173) = (   0.2845204   0.4770972   1.2475746  )
       174           N   tau( 174) = (   0.1666667   0.4811250   1.0497374  )
       175           O   tau( 175) = (   0.1807733   0.2839693   1.0709226  )
       176           Li  tau( 176) = (   0.4130321   0.3849994   1.3650835  )
       177           Li  tau( 177) = (   0.2865401   0.4790655   1.3642945  )
       178           Li  tau( 178) = (   0.2714879   0.3205679   1.3665036  )
       179           Li  tau( 179) = (   0.0919073   0.4911665   1.7674319  )
       180           Li  tau( 180) = (   0.2079114   0.3931041   1.7732410  )
       181           Li  tau( 181) = (   0.2378476   0.5642234   1.7875242  )
       182           Li  tau( 182) = (   0.2555671   0.3786719   1.5251907  )
       183           Li  tau( 183) = (   0.3959163   0.2830062   1.5453414  )
       184           Li  tau( 184) = (   0.3874171   0.4603782   1.5303686  )
       185           Li  tau( 185) = (   0.2821728   0.4727036   1.6169384  )
       186           Li  tau( 186) = (   0.3167715   0.0049969   1.3965544  )
       187           Li  tau( 187) = (   0.1268427   0.3847013   1.6071202  )
       188           Li  tau( 188) = (   0.1586940   0.2954782   1.4721080  )
       189           Li  tau( 189) = (   0.1612316   0.2826771   1.7103986  )
       190           Cr  tau( 190) = (   0.3311003   0.3872763   1.7209005  )
       191           Cr  tau( 191) = (   0.1486081   0.4844509   1.4417299  )
       192           N   tau( 192) = (   0.4308201   0.3804053   1.7462994  )
       193           N   tau( 193) = (   0.3381501   0.3833051   1.6136365  )
       194           N   tau( 194) = (   0.0510700   0.4905043   1.4014460  )
       195           N   tau( 195) = (   0.1901930   0.3920171   1.4031466  )
       196           N   tau( 196) = (   0.1981756   0.5657137   1.4188500  )
       197           N   tau( 197) = (   0.2748348   0.3118688   1.7519215  )
       198           N   tau( 198) = (   0.2934941   0.4733803   1.7348798  )
       199           N   tau( 199) = (   0.1577940   0.4756660   1.5426063  )
       200           O   tau( 200) = (   0.1641052   0.2810595   1.5889156  )
       201           Li  tau( 201) = (   0.9259927   0.0873080   0.8766270  )
       202           Li  tau( 202) = (   0.7947266   0.1809300   0.8766270  )
       203           Li  tau( 203) = (   0.7792805   0.0204373   0.8766270  )
       204           Li  tau( 204) = (   0.5587410   0.2111385   1.2774325  )
       205           Li  tau( 205) = (   0.6972866   0.1032842   1.2687364  )
       206           Li  tau( 206) = (   0.7106581   0.2568605   1.2901962  )
       207           Li  tau( 207) = (   0.7336608   0.0904568   1.0336250  )
       208           Li  tau( 208) = (   0.8881634   0.0127904   1.0336250  )
       209           Li  tau( 209) = (   0.8781757   0.1854282   1.0336250  )
       210           Li  tau( 210) = (   0.7668440   0.1971791   1.1119779  )
       211           Li  tau( 211) = (   0.5895141   0.2630717   1.1012013  )
       212           Li  tau( 212) = (   0.6179519   0.1151000   1.1296799  )
       213           Li  tau( 213) = (   0.6666690   0.0000000   0.9626942  )
       214           Li  tau( 214) = (   0.3421551   0.5631376   1.1984250  )
       215           Cr  tau( 215) = (   0.8325911   0.0942316   1.2073316  )
       216           Cr  tau( 216) = (   0.6666690   0.1924500   0.9478909  )
       217           N   tau( 217) = (   0.9236434   0.0807502   1.2434837  )
       218           N   tau( 218) = (   0.8254904   0.0988683   1.1116857  )
       219           N   tau( 219) = (   0.5697327   0.1982778   0.9168466  )
       220           N   tau( 220) = (   0.7100854   0.1055885   0.9168466  )
       221           N   tau( 221) = (   0.7201783   0.2734837   0.9168466  )
       222           N   tau( 222) = (   0.7836519   0.0066341   1.2442200  )
       223           N   tau( 223) = (   0.7807181   0.1794853   1.2454239  )
       224           N   tau( 224) = (   0.6666690   0.1924500   1.0497374  )
       225           O   tau( 225) = (   0.3426016   0.5681110   1.0834992  )
       226           Li  tau( 226) = (   0.9103245   0.0779111   1.3663692  )
       227           Li  tau( 227) = (   0.7913838   0.1717546   1.3779699  )
       228           Li  tau( 228) = (   0.7775331   0.0178668   1.3622082  )
       229           Li  tau( 229) = (   0.5593248   0.2101853   1.7602260  )
       230           Li  tau( 230) = (   0.7043113   0.1012323   1.7624819  )
       231           Li  tau( 231) = (   0.7101789   0.2680001   1.7482104  )
       232           Li  tau( 232) = (   0.7145153   0.0953379   1.5246530  )
       233           Li  tau( 233) = (   0.9172732   0.0154219   1.5122224  )
       234           Li  tau( 234) = (   0.8847445   0.1760705   1.5175231  )
       235           Li  tau( 235) = (   0.7678142   0.1891948   1.5957416  )
       236           Li  tau( 236) = (   0.5917875   0.2660025   1.6202521  )
       237           Li  tau( 237) = (   0.6158363   0.1049591   1.6207138  )
       238           Li  tau( 238) = (   0.2286769   0.5703803   1.5503557  )
       239           Li  tau( 239) = (   0.4496284   0.5591571   1.6038416  )
       240           Cr  tau( 240) = (   0.8282021   0.0889163   1.6918433  )
       241           Cr  tau( 241) = (   0.6581715   0.1901550   1.4394858  )
       242           N   tau( 242) = (   0.9217674   0.0859089   1.7313499  )
       243           N   tau( 243) = (   0.8280677   0.0955558   1.5853682  )
       244           N   tau( 244) = (   0.5595048   0.2055182   1.4062850  )
       245           N   tau( 245) = (   0.6953113   0.1054623   1.3991200  )
       246           N   tau( 246) = (   0.7180101   0.2680684   1.4090200  )
       247           N   tau( 247) = (   0.7732551   0.0154922   1.7320746  )
       248           N   tau( 248) = (   0.7796837   0.1720877   1.7348097  )
       249           N   tau( 249) = (   0.6547644   0.1912730   1.5427466  )
       250           O   tau( 250) = (   0.3281507   0.5777860   1.5702668  )
       251           Li  tau( 251) = (   0.7593284   0.3759836   0.8766270  )
       252           Li  tau( 252) = (   0.6280565   0.4696050   0.8766270  )
       253           Li  tau( 253) = (   0.6126161   0.3091127   0.8766270  )
       254           Li  tau( 254) = (   0.3936540   0.4915335   1.2899215  )
       255           Li  tau( 255) = (   0.5445379   0.3850596   1.2802494  )
       256           Li  tau( 256) = (   0.5477837   0.5553151   1.2716292  )
       257           Li  tau( 257) = (   0.5669941   0.3791318   1.0336250  )
       258           Li  tau( 258) = (   0.7214991   0.3014656   1.0336250  )
       259           Li  tau( 259) = (   0.7115055   0.4741032   1.0336250  )
       260           Li  tau( 260) = (   0.5980758   0.4935538   1.1282949  )
       261           Li  tau( 261) = (   0.4418422   0.5483033   1.1226611  )
       262           Li  tau( 262) = (   0.4428421   0.4027341   1.1128312  )
       263           Li  tau( 263) = (   0.5000000   0.2886750   0.9626942  )
       264           Li  tau( 264) = (   0.4835907   0.2855852   1.1841535  )
       265           Cr  tau( 265) = (   0.6674170   0.3783125   1.2019666  )
       266           Cr  tau( 266) = (   0.5000000   0.4811250   0.9478909  )
       267           N   tau( 267) = (   0.7599713   0.3684434   1.2461661  )
       268           N   tau( 268) = (   0.6724138   0.3887221   1.1023759  )
       269           N   tau( 269) = (   0.4030661   0.4869528   0.9168466  )
       270           N   tau( 270) = (   0.5434199   0.3942641   0.9168466  )
       271           N   tau( 271) = (   0.5535140   0.5621587   0.9168466  )
       272           N   tau( 272) = (   0.6030609   0.3078463   1.2330226  )
       273           N   tau( 273) = (   0.6185421   0.4670949   1.2443544  )
       274           N   tau( 274) = (   0.5000000   0.4811250   1.0497374  )
       275           O   tau( 275) = (   0.4923038   0.2980608   1.0757615  )
       276           Li  tau( 276) = (   0.7458576   0.3788928   1.3558672  )
       277           Li  tau( 277) = (   0.6226389   0.4721437   1.3801381  )
       278           Li  tau( 278) = (   0.6150473   0.3174582   1.3778998  )
       279           Li  tau( 279) = (   0.6664761   0.0042612   1.6743809  )
       280           Li  tau( 280) = (   0.5417327   0.3942554   1.7772209  )
       281           Li  tau( 281) = (   0.5655641   0.5471239   1.7768586  )
       282           Li  tau( 282) = (   0.5737798   0.3904333   1.5222101  )
       283           Li  tau( 283) = (   0.7217328   0.2889754   1.5219296  )
       284           Li  tau( 284) = (   0.7107575   0.4906954   1.5409173  )
       285           Li  tau( 285) = (   0.5906303   0.4874806   1.6370424  )
       286           Li  tau( 286) = (   0.4140666   0.4940681   1.7635280  )
       287           Li  tau( 287) = (   0.4609322   0.3865884   1.6287787  )
       288           Li  tau( 288) = (   0.4996809   0.2986510   1.4508001  )
       289           Li  tau( 289) = (   0.4781135   0.2897562   1.7031109  )
       290           Cr  tau( 290) = (   0.6600183   0.3827476   1.6977225  )
       291           Cr  tau( 291) = (   0.4948735   0.4841541   1.4525475  )
       292           N   tau( 292) = (   0.7588492   0.3710803   1.7362240  )
       293           N   tau( 293) = (   0.6514624   0.3938983   1.5914987  )
       294           N   tau( 294) = (   0.4000160   0.4846759   1.4102941  )
       295           N   tau( 295) = (   0.5407812   0.4029065   1.4278032  )
       296           N   tau( 296) = (   0.5501109   0.5589905   1.4094408  )
       297           N   tau( 297) = (   0.5947446   0.3131674   1.7325597  )
       298           N   tau( 298) = (   0.6210551   0.4709386   1.7447097  )
       299           N   tau( 299) = (   0.4969674   0.4632430   1.5506362  )
       300           O   tau( 300) = (   0.4950254   0.2785862   1.5766194  )

   Crystallographic axes

     site n.     atom                  positions (cryst. coord.)
         1           Li  tau(   1) = (  0.3097346  0.1512218  0.3321863  )
         2           Li  tau(   2) = (  0.2325188  0.3133799  0.3321863  )
         3           Li  tau(   3) = (  0.1244139  0.0353984  0.3321863  )
         4           Li  tau(   4) = (  0.0191489  0.3723855  0.4908872  )
         5           Li  tau(   5) = (  0.0850162  0.1710263  0.4874811  )
         6           Li  tau(   6) = (  0.1527103  0.4013508  0.4813423  )
         7           Li  tau(   7) = (  0.1192194  0.1566758  0.3916786  )
         8           Li  tau(   8) = (  0.2288830  0.0221536  0.3916786  )
         9           Li  tau(   9) = (  0.3185643  0.3211711  0.3916786  )
        10           Li  tau(  10) = (  0.2228195  0.3592284  0.4213473  )
        11           Li  tau(  11) = (  0.1086508  0.4546169  0.4269679  )
        12           Li  tau(  12) = (  0.0073826  0.1727886  0.4249327  )
        13           Li  tau(  13) = (  0.0000000  0.0000000  0.3648003  )
        14           Li  tau(  14) = (  0.0007712  0.0093932  0.4549202  )
        15           Cr  tau(  15) = (  0.2282786  0.1754630  0.4582532  )
        16           Cr  tau(  16) = (  0.1111111  0.3333332  0.3591908  )
        17           N   tau(  17) = (  0.3249338  0.1635286  0.4673019  )
        18           N   tau(  18) = (  0.2202912  0.1749366  0.4191770  )
        19           N   tau(  19) = (  0.0175419  0.3434273  0.3474270  )
        20           N   tau(  20) = (  0.1043816  0.1828847  0.3474270  )
        21           N   tau(  21) = (  0.2114100  0.4736876  0.3474270  )
        22           N   tau(  22) = (  0.1237594  0.0269758  0.4733256  )
        23           N   tau(  23) = (  0.2343534  0.3176283  0.4713369  )
        24           N   tau(  24) = (  0.1111111  0.3333332  0.3977842  )
        25           O   tau(  25) = (  0.9911066  0.0058850  0.4120151  )
        26           Li  tau(  26) = (  0.2953293  0.1686931  0.5285792  )
        27           Li  tau(  27) = (  0.2325774  0.3207895  0.5194441  )
        28           Li  tau(  28) = (  0.1299632  0.0241607  0.5176569  )
        29           Li  tau(  29) = (  0.0124732  0.3213432  0.6677033  )
        30           Li  tau(  30) = (  0.1120551  0.1923826  0.6763047  )
        31           Li  tau(  31) = (  0.2047009  0.4853800  0.6808379  )
        32           Li  tau(  32) = (  0.1302700  0.1587984  0.5751650  )
        33           Li  tau(  33) = (  0.2221743  0.9641359  0.5813924  )
        34           Li  tau(  34) = (  0.3286885  0.3322562  0.5874891  )
        35           Li  tau(  35) = (  0.1922424  0.3356462  0.6174767  )
        36           Li  tau(  36) = (  0.0926142  0.4710355  0.6086428  )
        37           Li  tau(  37) = (  0.0334617  0.1861897  0.6127685  )
        38           Li  tau(  38) = (  0.9834602  0.9785836  0.5427835  )
        39           Li  tau(  39) = (  0.0217811  0.0100469  0.6430351  )
        40           Cr  tau(  40) = (  0.2199516  0.1726641  0.6513309  )
        41           Cr  tau(  41) = (  0.1088031  0.3240337  0.5460323  )
        42           N   tau(  42) = (  0.3110892  0.1360281  0.6620561  )
        43           N   tau(  43) = (  0.1990250  0.1817905  0.6129346  )
        44           N   tau(  44) = (  0.0242572  0.3459619  0.5336683  )
        45           N   tau(  45) = (  0.1048013  0.1726429  0.5319409  )
        46           N   tau(  46) = (  0.2116515  0.4689068  0.5399577  )
        47           N   tau(  47) = (  0.1244925  0.0246064  0.6677520  )
        48           N   tau(  48) = (  0.2232057  0.3107734  0.6682635  )
        49           N   tau(  49) = (  0.1039363  0.3185980  0.5842736  )
        50           O   tau(  50) = (  0.0185437  0.0096963  0.5934663  )
        51           Li  tau(  51) = (  0.3097348  0.6512226  0.3321863  )
        52           Li  tau(  52) = (  0.2325186  0.8133797  0.3321863  )
        53           Li  tau(  53) = (  0.1244139  0.5353989  0.3321863  )
        54           Li  tau(  54) = (  0.0124341  0.8552338  0.4827198  )
        55           Li  tau(  55) = (  0.1042736  0.6867179  0.4804742  )
        56           Li  tau(  56) = (  0.2257351  0.9714189  0.4835325  )
        57           Li  tau(  57) = (  0.1192194  0.6566756  0.3916786  )
        58           Li  tau(  58) = (  0.2288831  0.5221537  0.3916786  )
        59           Li  tau(  59) = (  0.3185642  0.8211709  0.3916786  )
        60           Li  tau(  60) = (  0.2073372  0.8293235  0.4254797  )
        61           Li  tau(  61) = (  0.1015283  0.9937136  0.4248308  )
        62           Li  tau(  62) = (  0.0315730  0.6709856  0.4204770  )
        63           Li  tau(  63) = ( -0.0000001  0.4999998  0.3648003  )
        64           Li  tau(  64) = (  0.9826015  0.4935822  0.4529160  )
        65           Cr  tau(  65) = (  0.2168808  0.6603733  0.4563354  )
        66           Cr  tau(  66) = (  0.1111110  0.8333330  0.3591908  )
        67           N   tau(  67) = (  0.3202833  0.6624777  0.4691710  )
        68           N   tau(  68) = (  0.2217274  0.6528574  0.4189777  )
        69           N   tau(  69) = (  0.0175418  0.8434271  0.3474270  )
        70           N   tau(  70) = (  0.1043818  0.6828855  0.3474270  )
        71           N   tau(  71) = (  0.2114098  0.9736874  0.3474270  )
        72           N   tau(  72) = (  0.1124004  0.5241418  0.4695763  )
        73           N   tau(  73) = (  0.2241664  0.8080958  0.4640908  )
        74           N   tau(  74) = (  0.1111110  0.8333330  0.3977842  )
        75           O   tau(  75) = (  0.9960340  0.5043899  0.4090697  )
        76           Li  tau(  76) = (  0.3034734  0.6522045  0.5185605  )
        77           Li  tau(  77) = (  0.2095357  0.7920700  0.5198383  )
        78           Li  tau(  78) = (  0.1251517  0.5312689  0.5171897  )
        79           Li  tau(  79) = (  0.9961178  0.8170885  0.6767498  )
        80           Li  tau(  80) = (  0.0832376  0.6469844  0.6746548  )
        81           Li  tau(  81) = (  0.2088965  0.9631985  0.6727968  )
        82           Li  tau(  82) = (  0.1249697  0.6469510  0.5739448  )
        83           Li  tau(  83) = (  0.2164964  0.5140031  0.5824576  )
        84           Li  tau(  84) = (  0.3074488  0.8286088  0.5755636  )
        85           Li  tau(  85) = (  0.1485779  0.7795374  0.6206923  )
        86           Li  tau(  86) = (  0.1100750  0.0023911  0.6086295  )
        87           Li  tau(  87) = (  0.9966074  0.6692678  0.6042003  )
        88           Li  tau(  88) = (  0.9961216  0.5021629  0.5479988  )
        89           Li  tau(  89) = (  0.9865218  0.4810253  0.6420075  )
        90           Cr  tau(  90) = (  0.2148865  0.6638685  0.6448776  )
        91           Cr  tau(  91) = (  0.0976323  0.8225901  0.5463645  )
        92           N   tau(  92) = (  0.3044831  0.6452312  0.6610462  )
        93           N   tau(  93) = (  0.2242289  0.6781189  0.6047562  )
        94           N   tau(  94) = (  0.0128011  0.8395228  0.5304727  )
        95           N   tau(  95) = (  0.0989968  0.6714644  0.5336905  )
        96           N   tau(  96) = (  0.1971162  0.9498855  0.5298947  )
        97           N   tau(  97) = (  0.1146160  0.5158252  0.6581607  )
        98           N   tau(  98) = (  0.2026864  0.7802510  0.6603952  )
        99           N   tau(  99) = (  0.0963144  0.8309127  0.5842359  )
       100           O   tau( 100) = (  0.0057454  0.5225677  0.5930787  )
       101           Li  tau( 101) = (  0.6430655  0.1512218  0.3321863  )
       102           Li  tau( 102) = (  0.5658521  0.3133799  0.3321863  )
       103           Li  tau( 103) = (  0.4577472  0.0353984  0.3321863  )
       104           Li  tau( 104) = (  0.3555136  0.3541813  0.4828283  )
       105           Li  tau( 105) = (  0.4367809  0.2199591  0.4890336  )
       106           Li  tau( 106) = (  0.5303143  0.4780422  0.4892395  )
       107           Li  tau( 107) = (  0.4525527  0.1566758  0.3916786  )
       108           Li  tau( 108) = (  0.5622164  0.0221536  0.3916786  )
       109           Li  tau( 109) = (  0.6518976  0.3211711  0.3916786  )
       110           Li  tau( 110) = (  0.5202514  0.3307712  0.4281527  )
       111           Li  tau( 111) = (  0.4515127  0.4918917  0.4243104  )
       112           Li  tau( 112) = (  0.3373187  0.1584826  0.4233338  )
       113           Li  tau( 113) = (  0.3333333  0.0000000  0.3648003  )
       114           Li  tau( 114) = (  0.3442072  0.0143896  0.4503449  )
       115           Cr  tau( 115) = (  0.5516924  0.1757201  0.4589419  )
       116           Cr  tau( 116) = (  0.4444444  0.3333332  0.3591908  )
       117           N   tau( 117) = (  0.6511801  0.1710597  0.4723113  )
       118           N   tau( 118) = (  0.5586581  0.1802225  0.4189932  )
       119           N   tau( 119) = (  0.3508752  0.3434273  0.3474270  )
       120           N   tau( 120) = (  0.4377148  0.1828847  0.3474270  )
       121           N   tau( 121) = (  0.5447432  0.4736876  0.3474270  )
       122           N   tau( 122) = (  0.4562647  0.0296166  0.4734407  )
       123           N   tau( 123) = (  0.5571401  0.3207399  0.4714786  )
       124           N   tau( 124) = (  0.4444444  0.3333332  0.3977842  )
       125           O   tau( 125) = (  0.3157329  1.0006646  0.4053027  )
       126           Li  tau( 126) = (  0.6593251  0.9928886  0.5470820  )
       127           Li  tau( 127) = (  0.5663541  0.3285402  0.5219045  )
       128           Li  tau( 128) = (  0.6305789  0.1422189  0.5237315  )
       129           Li  tau( 129) = (  0.3456349  0.3571735  0.6806585  )
       130           Li  tau( 130) = (  0.4319608  0.1753304  0.6764708  )
       131           Li  tau( 131) = (  0.5488303  0.4830964  0.6780453  )
       132           Li  tau( 132) = (  0.4123492  0.1321927  0.5745671  )
       133           Li  tau( 133) = (  0.4248915  0.9828350  0.6117299  )
       134           Li  tau( 134) = (  0.6131071  0.2692158  0.5741131  )
       135           Li  tau( 135) = (  0.5561675  0.3421326  0.6180082  )
       136           Li  tau( 136) = (  0.4309970  0.5112448  0.6222336  )
       137           Li  tau( 137) = (  0.3361176  0.1666069  0.6147793  )
       138           Li  tau( 138) = (  0.4492093  0.0332048  0.5136308  )
       139           Li  tau( 139) = (  0.3217381  0.9850842  0.6428535  )
       140           Cr  tau( 140) = (  0.5652890  0.1745773  0.6495127  )
       141           Cr  tau( 141) = (  0.4452177  0.3474631  0.5475670  )
       142           N   tau( 142) = (  0.6637106  0.1753567  0.6585726  )
       143           N   tau( 143) = (  0.5470651  0.1548183  0.6120421  )
       144           N   tau( 144) = (  0.3520965  0.3610646  0.5369968  )
       145           N   tau( 145) = (  0.4191893  0.1816609  0.5319897  )
       146           N   tau( 146) = (  0.5424188  0.4705891  0.5364055  )
       147           N   tau( 147) = (  0.4650746  0.0330490  0.6643460  )
       148           N   tau( 148) = (  0.5542814  0.3204777  0.6615180  )
       149           N   tau( 149) = (  0.4416177  0.3381008  0.5877195  )
       150           O   tau( 150) = (  0.3329659  0.0111653  0.5983450  )
       151           Li  tau( 151) = (  0.6430682  0.6512226  0.3321863  )
       152           Li  tau( 152) = (  0.5658520  0.8133797  0.3321863  )
       153           Li  tau( 153) = (  0.4577474  0.5353989  0.3321863  )
       154           Li  tau( 154) = (  0.3424218  0.8372250  0.4807710  )
       155           Li  tau( 155) = (  0.4338809  0.7075437  0.4838492  )
       156           Li  tau( 156) = (  0.5377251  0.9618310  0.4851027  )
       157           Li  tau( 157) = (  0.4525527  0.6566756  0.3916786  )
       158           Li  tau( 158) = (  0.5622164  0.5221537  0.3916786  )
       159           Li  tau( 159) = (  0.6518976  0.8211709  0.3916786  )
       160           Li  tau( 160) = (  0.5397969  0.8448574  0.4270210  )
       161           Li  tau( 161) = (  0.4411115  0.9598288  0.4326638  )
       162           Li  tau( 162) = (  0.3419270  0.6932711  0.4248530  )
       163           Li  tau( 163) = (  0.3333333  0.4999998  0.3648003  )
       164           Li  tau( 164) = (  0.3299916  0.4775442  0.4517645  )
       165           Cr  tau( 165) = (  0.5541996  0.6694015  0.4566343  )
       166           Cr  tau( 166) = (  0.4444443  0.8333330  0.3591908  )
       167           N   tau( 167) = (  0.6389377  0.6470137  0.4719769  )
       168           N   tau( 168) = (  0.5588779  0.6831244  0.4191814  )
       169           N   tau( 169) = (  0.3508751  0.8434271  0.3474270  )
       170           N   tau( 170) = (  0.4377151  0.6828855  0.3474270  )
       171           N   tau( 171) = (  0.5447431  0.9736874  0.3474270  )
       172           N   tau( 172) = (  0.4514690  0.5489042  0.4707168  )
       173           N   tau( 173) = (  0.5599726  0.8263566  0.4727520  )
       174           N   tau( 174) = (  0.4444443  0.8333330  0.3977842  )
       175           O   tau( 175) = (  0.3447231  0.4918492  0.4058120  )
       176           Li  tau( 176) = (  0.6353116  0.6668385  0.5172805  )
       177           Li  tau( 177) = (  0.5631287  0.8297658  0.5169815  )
       178           Li  tau( 178) = (  0.4565678  0.5552398  0.5178186  )
       179           Li  tau( 179) = (  0.3754824  0.8507253  0.6697451  )
       180           Li  tau( 180) = (  0.4348701  0.6808762  0.6719464  )
       181           Li  tau( 181) = (  0.5636021  0.9772636  0.6773588  )
       182           Li  tau( 182) = (  0.4741935  0.6558789  0.5779510  )
       183           Li  tau( 183) = (  0.5593100  0.4901810  0.5855868  )
       184           Li  tau( 184) = (  0.6532166  0.7973984  0.5799131  )
       185           Li  tau( 185) = (  0.5550883  0.8187466  0.6127176  )
       186           Li  tau( 186) = (  0.3196565  0.0086549  0.5292059  )
       187           Li  tau( 187) = (  0.3489501  0.6663222  0.6089971  )
       188           Li  tau( 188) = (  0.3292885  0.5117833  0.5578360  )
       189           Li  tau( 189) = (  0.3244353  0.4896112  0.6481331  )
       190           Cr  tau( 190) = (  0.5546943  0.6707822  0.6521127  )
       191           Cr  tau( 191) = (  0.4283060  0.8390936  0.5463246  )
       192           N   tau( 192) = (  0.6504472  0.6588812  0.6617372  )
       193           N   tau( 193) = (  0.5594514  0.6639040  0.6114663  )
       194           N   tau( 194) = (  0.3342628  0.8495784  0.5310595  )
       195           N   tau( 195) = (  0.4165241  0.6789935  0.5317040  )
       196           N   tau( 196) = (  0.5247905  0.9798448  0.5376546  )
       197           N   tau( 197) = (  0.4548924  0.5401726  0.6638676  )
       198           N   tau( 198) = (  0.5668004  0.8199188  0.6574099  )
       199           N   tau( 199) = (  0.4324199  0.8238776  0.5845504  )
       200           O   tau( 200) = (  0.3263749  0.4868093  0.6020987  )
       201           Li  tau( 201) = (  0.9764000  0.1512218  0.3321863  )
       202           Li  tau( 202) = (  0.8991866  0.3133799  0.3321863  )
       203           Li  tau( 203) = (  0.7910799  0.0353984  0.3321863  )
       204           Li  tau( 204) = (  0.6806419  0.3657027  0.4840663  )
       205           Li  tau( 205) = (  0.7569178  0.1788935  0.4807710  )
       206           Li  tau( 206) = (  0.8589566  0.4448954  0.4889029  )
       207           Li  tau( 207) = (  0.7858861  0.1566758  0.3916786  )
       208           Li  tau( 208) = (  0.8955479  0.0221536  0.3916786  )
       209           Li  tau( 209) = (  0.9852327  0.3211711  0.3916786  )
       210           Li  tau( 210) = (  0.8806855  0.3415243  0.4213694  )
       211           Li  tau( 211) = (  0.7413986  0.4556535  0.4172857  )
       212           Li  tau( 212) = (  0.6844049  0.1993590  0.4280774  )
       213           Li  tau( 213) = (  0.6666690  0.0000000  0.3648003  )
       214           Li  tau( 214) = (  0.6672827  0.9753829  0.4541274  )
       215           Cr  tau( 215) = (  0.8869957  0.1632138  0.4575024  )
       216           Cr  tau( 216) = (  0.7777800  0.3333332  0.3591908  )
       217           N   tau( 217) = (  0.9702645  0.1398634  0.4712018  )
       218           N   tau( 218) = (  0.8825720  0.1712450  0.4212587  )
       219           N   tau( 219) = (  0.6842085  0.3434273  0.3474270  )
       220           N   tau( 220) = (  0.7710469  0.1828847  0.3474270  )
       221           N   tau( 221) = (  0.8780741  0.4736876  0.3474270  )
       222           N   tau( 222) = (  0.7874821  0.0114907  0.4714808  )
       223           N   tau( 223) = (  0.8843440  0.3108776  0.4719370  )
       224           N   tau( 224) = (  0.7777800  0.3333332  0.3977842  )
       225           O   tau( 225) = (  0.6706006  0.9839970  0.4105778  )
       226           Li  tau( 226) = (  0.9553065  0.1349460  0.5177677  )
       227           Li  tau( 227) = (  0.8905463  0.2974877  0.5221636  )
       228           Li  tau( 228) = (  0.7878484  0.0309461  0.5161909  )
       229           Li  tau( 229) = (  0.6806754  0.3640517  0.6670145  )
       230           Li  tau( 230) = (  0.7627578  0.1753395  0.6678694  )
       231           Li  tau( 231) = (  0.8649088  0.4641897  0.6624614  )
       232           Li  tau( 232) = (  0.7695586  0.1651300  0.5777472  )
       233           Li  tau( 233) = (  0.9261771  0.0267115  0.5730368  )
       234           Li  tau( 234) = (  0.9863989  0.3049631  0.5750454  )
       235           Li  tau( 235) = (  0.8770458  0.3276950  0.6046853  )
       236           Li  tau( 236) = (  0.7453641  0.4607299  0.6139732  )
       237           Li  tau( 237) = (  0.6764345  0.1817945  0.6141482  )
       238           Li  tau( 238) = (  0.5579861  0.9879276  0.5874869  )
       239           Li  tau( 239) = (  0.7724579  0.9684885  0.6077547  )
       240           Cr  tau( 240) = (  0.8795379  0.1540075  0.6411018  )
       241           Cr  tau( 241) = (  0.7679576  0.3293581  0.5454742  )
       242           N   tau( 242) = (  0.9713669  0.1487985  0.6560723  )
       243           N   tau( 243) = (  0.8832369  0.1655076  0.6007544  )
       244           N   tau( 244) = (  0.6781608  0.3559679  0.5328932  )
       245           N   tau( 245) = (  0.7562000  0.1826661  0.5301781  )
       246           N   tau( 246) = (  0.8727795  0.4643081  0.5339296  )
       247           N   tau( 247) = (  0.7821995  0.0268332  0.6563469  )
       248           N   tau( 248) = (  0.8790386  0.2980647  0.6573833  )
       249           N   tau( 249) = (  0.7651959  0.3312945  0.5846035  )
       250           O   tau( 250) = (  0.6617356  1.0007547  0.5950320  )
       251           Li  tau( 251) = (  0.9764026  0.6512226  0.3321863  )
       252           Li  tau( 252) = (  0.8991830  0.8133797  0.3321863  )
       253           Li  tau( 253) = (  0.7910824  0.5353989  0.3321863  )
       254           Li  tau( 254) = (  0.6774410  0.8513610  0.4887988  )
       255           Li  tau( 255) = (  0.7668521  0.6669427  0.4851337  )
       256           Li  tau( 256) = (  0.8683951  0.9618340  0.4818672  )
       257           Li  tau( 257) = (  0.7858860  0.6566756  0.3916786  )
       258           Li  tau( 258) = (  0.8955503  0.5221537  0.3916786  )
       259           Li  tau( 259) = (  0.9852291  0.8211709  0.3916786  )
       260           Li  tau( 260) = (  0.8830293  0.8548603  0.4275525  )
       261           Li  tau( 261) = (  0.7584052  0.9496891  0.4254177  )
       262           Li  tau( 262) = (  0.6753608  0.6975559  0.4216928  )
       263           Li  tau( 263) = (  0.6666666  0.4999998  0.3648003  )
       264           Li  tau( 264) = (  0.6484734  0.4946481  0.4487194  )
       265           Cr  tau( 265) = (  0.8858358  0.6552564  0.4554695  )
       266           Cr  tau( 266) = (  0.7777776  0.8333330  0.3591908  )
       267           N   tau( 267) = (  0.9726922  0.6381627  0.4722183  )
       268           N   tau( 268) = (  0.8968426  0.6732864  0.4177309  )
       269           N   tau( 269) = (  0.6842084  0.8434271  0.3474270  )
       270           N   tau( 270) = (  0.7710484  0.6828855  0.3474270  )
       271           N   tau( 271) = (  0.8780764  0.9736874  0.3474270  )
       272           N   tau( 272) = (  0.7807960  0.5332054  0.4672377  )
       273           N   tau( 273) = (  0.8882195  0.8090321  0.4715318  )
       274           N   tau( 274) = (  0.7777776  0.8333330  0.3977842  )
       275           O   tau( 275) = (  0.6643892  0.5162564  0.4076457  )
       276           Li  tau( 276) = (  0.9646114  0.6562616  0.5137881  )
       277           Li  tau( 277) = (  0.8952312  0.8177769  0.5229852  )
       278           Li  tau( 278) = (  0.7983319  0.5498537  0.5221370  )
       279           Li  tau( 279) = (  0.6689363  0.0073805  0.6344846  )
       280           Li  tau( 280) = (  0.7693561  0.6828703  0.6734545  )
       281           Li  tau( 281) = (  0.8814462  0.9476464  0.6733172  )
       282           Li  tau( 282) = (  0.7991966  0.6762503  0.5768215  )
       283           Li  tau( 283) = (  0.8885728  0.5005201  0.5767152  )
       284           Li  tau( 284) = (  0.9940606  0.8499094  0.5839104  )
       285           Li  tau( 285) = (  0.8720774  0.8443411  0.6203357  )
       286           Li  tau( 286) = (  0.6993169  0.8557511  0.6682658  )
       287           Li  tau( 287) = (  0.6841291  0.6695907  0.6172043  )
       288           Li  tau( 288) = (  0.6721071  0.5172788  0.5497616  )
       289           Li  tau( 289) = (  0.6454043  0.5018724  0.6453715  )
       290           Cr  tau( 290) = (  0.8809977  0.6629383  0.6433296  )
       291           Cr  tau( 291) = (  0.7743999  0.8385794  0.5504238  )
       292           N   tau( 292) = (  0.9730925  0.6427299  0.6579193  )
       293           N   tau( 293) = (  0.8788797  0.6822519  0.6030775  )
       294           N   tau( 294) = (  0.6798438  0.8394834  0.5344124  )
       295           N   tau( 295) = (  0.7733994  0.6978546  0.5410473  )
       296           N   tau( 296) = (  0.8728442  0.9682000  0.5340891  )
       297           N   tau( 297) = (  0.7755519  0.5424218  0.6565307  )
       298           N   tau( 298) = (  0.8929517  0.8156896  0.6611348  )
       299           N   tau( 299) = (  0.7644209  0.8023604  0.5875932  )
       300           O   tau( 300) = (  0.6558672  0.4825255  0.5974392  )

     number of k points=     1  Gaussian smearing, width (Ry)=  0.0147
                       cart. coord. in units 2pi/alat
        k(    1) = (   0.0000000   0.0000000   0.0000000), wk =   2.0000000

                       cryst. coord.
        k(    1) = (   0.0000000   0.0000000   0.0000000), wk =   2.0000000

     Dense  grid:  5457965 G-vectors     FFT dimensions: ( 240, 160, 640)

     Smooth grid:  2970742 G-vectors     FFT dimensions: ( 200, 135, 540)

     Dynamical RAM for                 wfc:    1182.84 MB

     Dynamical RAM for     wfc (w. buffer):    1182.84 MB

     Dynamical RAM for           str. fact:      83.28 MB

     Dynamical RAM for           local pot:       0.00 MB

     Dynamical RAM for          nlocal pot:    3977.76 MB

     Dynamical RAM for                qrad:       7.46 MB

     Dynamical RAM for          rho,v,vnew:     203.09 MB

     Dynamical RAM for               rhoin:      67.70 MB

     Dynamical RAM for            rho*nmix:     333.13 MB

     Dynamical RAM for           G-vectors:      83.74 MB

     Dynamical RAM for          h,s,v(r/c):      63.83 MB

     Dynamical RAM for          <psi|beta>:      17.89 MB

     Dynamical RAM for                 psi:    2365.69 MB

     Dynamical RAM for                hpsi:    2365.69 MB

     Dynamical RAM for                spsi:    2365.69 MB

     Dynamical RAM for      wfcinit/wfcrot:    4336.08 MB

     Dynamical RAM for           addusdens:    7370.47 MB

     Dynamical RAM for          addusforce:   14335.60 MB

     Dynamical RAM for         addusstress:    4184.93 MB

     Estimated static dynamical RAM per process >       5.81 GB

     Estimated max dynamical RAM per process >      20.13 GB

     Estimated total dynamical RAM >      80.52 GB

     Check: negative core charge=   -0.000002

     Initial potential from superposition of free atoms

     starting charge    1292.2742, renormalised to    1392.0000

     negative rho (up, down):  2.493E-02 0.000E+00
     Starting wfcs are 1512 randomized atomic wfcs
     Checking if some PAW data can be deallocated... 

     total cpu time spent up to now is       34.8 secs

     per-process dynamical memory:  1708.6 Mb

     Self-consistent Calculation
[tb_dev] Currently allocated     1.26E+02 Mbytes, locked:    0 /  11
[tb_pin] Currently allocated     0.00E+00 Mbytes, locked:    0 /   0

     iteration #  1     ecut=    90.00 Ry     beta= 0.20
     Davidson diagonalization with overlap

---- Real-time Memory Report at c_bands before calling an iterative solver
         10171 MiB given to the printing process from OS
          1746 MiB allocation reported by mallinfo(arena+hblkhd)
        465830 MiB available memory on the node where the printing process lives
     GPU memory used/free/total (MiB): 16367 / 48601 / 64969
------------------
     ethr =  1.00E-02,  avg # of iterations =  4.0

     negative rho (up, down):  4.116E-02 0.000E+00

     total cpu time spent up to now is       38.7 secs

     total energy              =   -9071.53307164 Ry
     estimated scf accuracy    <     237.08890589 Ry
[tb_dev] Currently allocated     2.41E+01 Mbytes, locked:    0 /   6
[tb_pin] Currently allocated     0.00E+00 Mbytes, locked:    0 /   0

     iteration #  2     ecut=    90.00 Ry     beta= 0.20
     Davidson diagonalization with overlap

---- Real-time Memory Report at c_bands before calling an iterative solver
         10502 MiB given to the printing process from OS
          2013 MiB allocation reported by mallinfo(arena+hblkhd)
        464874 MiB available memory on the node where the printing process lives
     GPU memory used/free/total (MiB): 31251 / 33717 / 64969
------------------
     ethr =  1.00E-02,  avg # of iterations =  4.0

     negative rho (up, down):  7.078E-02 0.000E+00

     total cpu time spent up to now is       42.4 secs

     total energy              =   -9060.75707293 Ry
     estimated scf accuracy    <      54.47455933 Ry
[tb_dev] Currently allocated     2.41E+01 Mbytes, locked:    0 /   6
[tb_pin] Currently allocated     0.00E+00 Mbytes, locked:    0 /   0

     iteration #  3     ecut=    90.00 Ry     beta= 0.20
     Davidson diagonalization with overlap

---- Real-time Memory Report at c_bands before calling an iterative solver
         10505 MiB given to the printing process from OS
          2037 MiB allocation reported by mallinfo(arena+hblkhd)
        464774 MiB available memory on the node where the printing process lives
     GPU memory used/free/total (MiB): 31251 / 33717 / 64969
------------------
     ethr =  3.91E-03,  avg # of iterations =  7.0

     negative rho (up, down):  6.185E-02 0.000E+00

     total cpu time spent up to now is       47.9 secs

     total energy              =   -9134.13532401 Ry
     estimated scf accuracy    <     814.61877083 Ry
[tb_dev] Currently allocated     2.41E+01 Mbytes, locked:    0 /   6
[tb_pin] Currently allocated     0.00E+00 Mbytes, locked:    0 /   0

     iteration #  4     ecut=    90.00 Ry     beta= 0.20
     Davidson diagonalization with overlap

---- Real-time Memory Report at c_bands before calling an iterative solver
         10529 MiB given to the printing process from OS
         -2035 MiB allocation reported by mallinfo(arena+hblkhd)
        464575 MiB available memory on the node where the printing process lives
     GPU memory used/free/total (MiB): 31251 / 33717 / 64969
------------------
     ethr =  3.91E-03,  avg # of iterations =  1.0

     negative rho (up, down):  4.258E-02 0.000E+00

     total cpu time spent up to now is       51.2 secs

     total energy              =   -9075.85010410 Ry
     estimated scf accuracy    <     977.04359237 Ry
[tb_dev] Currently allocated     2.41E+01 Mbytes, locked:    0 /   6
[tb_pin] Currently allocated     0.00E+00 Mbytes, locked:    0 /   0

     iteration #  5     ecut=    90.00 Ry     beta= 0.20
     Davidson diagonalization with overlap

---- Real-time Memory Report at c_bands before calling an iterative solver
         10552 MiB given to the printing process from OS
         -2011 MiB allocation reported by mallinfo(arena+hblkhd)
        464528 MiB available memory on the node where the printing process lives
     GPU memory used/free/total (MiB): 31251 / 33717 / 64969
------------------
     ethr =  3.91E-03,  avg # of iterations =  2.0

     negative rho (up, down):  3.887E-02 0.000E+00

     total cpu time spent up to now is       54.7 secs

     total energy              =   -9095.48909129 Ry
     estimated scf accuracy    <      43.74553753 Ry
[tb_dev] Currently allocated     2.41E+01 Mbytes, locked:    0 /   6
[tb_pin] Currently allocated     0.00E+00 Mbytes, locked:    0 /   0

     iteration #  6     ecut=    90.00 Ry     beta= 0.20
     Davidson diagonalization with overlap

---- Real-time Memory Report at c_bands before calling an iterative solver
         10576 MiB given to the printing process from OS
         -1988 MiB allocation reported by mallinfo(arena+hblkhd)
        464292 MiB available memory on the node where the printing process lives
     GPU memory used/free/total (MiB): 31251 / 33717 / 64969
------------------
     ethr =  3.14E-03,  avg # of iterations =  1.0

     negative rho (up, down):  3.000E-02 0.000E+00

     total cpu time spent up to now is       58.0 secs

     total energy              =   -9094.69296400 Ry
     estimated scf accuracy    <       7.29729227 Ry
[tb_dev] Currently allocated     2.41E+01 Mbytes, locked:    0 /   6
[tb_pin] Currently allocated     0.00E+00 Mbytes, locked:    0 /   0

     iteration #  7     ecut=    90.00 Ry     beta= 0.20
     Davidson diagonalization with overlap

---- Real-time Memory Report at c_bands before calling an iterative solver
         10599 MiB given to the printing process from OS
         -1964 MiB allocation reported by mallinfo(arena+hblkhd)
        464340 MiB available memory on the node where the printing process lives
     GPU memory used/free/total (MiB): 31251 / 33717 / 64969
------------------
     ethr =  5.24E-04,  avg # of iterations = 10.0

     negative rho (up, down):  2.825E-02 0.000E+00

     total cpu time spent up to now is       63.1 secs

     total energy              =   -9101.09344170 Ry
     estimated scf accuracy    <      54.53948687 Ry
[tb_dev] Currently allocated     2.41E+01 Mbytes, locked:    0 /   6
[tb_pin] Currently allocated     0.00E+00 Mbytes, locked:    0 /   0

     iteration #  8     ecut=    90.00 Ry     beta= 0.20
     Davidson diagonalization with overlap

---- Real-time Memory Report at c_bands before calling an iterative solver
         10623 MiB given to the printing process from OS
         -1941 MiB allocation reported by mallinfo(arena+hblkhd)
        464103 MiB available memory on the node where the printing process lives
     GPU memory used/free/total (MiB): 31757 / 33211 / 64969
------------------
     ethr =  5.24E-04,  avg # of iterations =  2.0

     negative rho (up, down):  3.270E-02 0.000E+00

     total cpu time spent up to now is       66.6 secs

     total energy              =   -9092.50868268 Ry
     estimated scf accuracy    <      45.21827659 Ry
[tb_dev] Currently allocated     2.41E+01 Mbytes, locked:    0 /   6
[tb_pin] Currently allocated     0.00E+00 Mbytes, locked:    0 /   0

     iteration #  9     ecut=    90.00 Ry     beta= 0.20
     Davidson diagonalization with overlap

---- Real-time Memory Report at c_bands before calling an iterative solver
         10646 MiB given to the printing process from OS
         -1917 MiB allocation reported by mallinfo(arena+hblkhd)
        464009 MiB available memory on the node where the printing process lives
     GPU memory used/free/total (MiB): 31757 / 33211 / 64969
------------------
     ethr =  5.24E-04,  avg # of iterations =  9.0

     negative rho (up, down):  3.389E-02 0.000E+00

     total cpu time spent up to now is       71.3 secs

     total energy              =   -9095.73291333 Ry
     estimated scf accuracy    <       1.75302975 Ry
[tb_dev] Currently allocated     2.41E+01 Mbytes, locked:    0 /   6
[tb_pin] Currently allocated     0.00E+00 Mbytes, locked:    0 /   0

     iteration # 10     ecut=    90.00 Ry     beta= 0.20
     Davidson diagonalization with overlap

---- Real-time Memory Report at c_bands before calling an iterative solver
         10670 MiB given to the printing process from OS
         -1894 MiB allocation reported by mallinfo(arena+hblkhd)
        463915 MiB available memory on the node where the printing process lives
     GPU memory used/free/total (MiB): 31757 / 33211 / 64969
------------------
     ethr =  1.26E-04,  avg # of iterations = 10.0

     negative rho (up, down):  3.380E-02 0.000E+00

     total cpu time spent up to now is       76.0 secs

     total energy              =   -9095.93164759 Ry
     estimated scf accuracy    <       0.83795545 Ry
[tb_dev] Currently allocated     2.41E+01 Mbytes, locked:    0 /   6
[tb_pin] Currently allocated     0.00E+00 Mbytes, locked:    0 /   0

     iteration # 11     ecut=    90.00 Ry     beta= 0.20
     Davidson diagonalization with overlap

---- Real-time Memory Report at c_bands before calling an iterative solver
         10670 MiB given to the printing process from OS
         -1894 MiB allocation reported by mallinfo(arena+hblkhd)
        463915 MiB available memory on the node where the printing process lives
     GPU memory used/free/total (MiB): 31959 / 33009 / 64969
------------------
     ethr =  6.02E-05,  avg # of iterations =  2.0

     negative rho (up, down):  3.480E-02 0.000E+00

     total cpu time spent up to now is       79.6 secs

     total energy              =   -9095.94618937 Ry
     estimated scf accuracy    <       0.53461044 Ry
[tb_dev] Currently allocated     2.41E+01 Mbytes, locked:    0 /   6
[tb_pin] Currently allocated     0.00E+00 Mbytes, locked:    0 /   0

     iteration # 12     ecut=    90.00 Ry     beta= 0.20
     Davidson diagonalization with overlap

---- Real-time Memory Report at c_bands before calling an iterative solver
         10670 MiB given to the printing process from OS
         -1894 MiB allocation reported by mallinfo(arena+hblkhd)
        464106 MiB available memory on the node where the printing process lives
     GPU memory used/free/total (MiB): 31959 / 33009 / 64969
------------------
     ethr =  3.84E-05,  avg # of iterations =  2.0

     negative rho (up, down):  3.759E-02 0.000E+00

     total cpu time spent up to now is       83.1 secs

     total energy              =   -9095.87920180 Ry
     estimated scf accuracy    <       0.35363940 Ry
[tb_dev] Currently allocated     2.41E+01 Mbytes, locked:    0 /   6
[tb_pin] Currently allocated     0.00E+00 Mbytes, locked:    0 /   0

     iteration # 13     ecut=    90.00 Ry     beta= 0.20
     Davidson diagonalization with overlap

---- Real-time Memory Report at c_bands before calling an iterative solver
         10670 MiB given to the printing process from OS
         -1894 MiB allocation reported by mallinfo(arena+hblkhd)
        463915 MiB available memory on the node where the printing process lives
     GPU memory used/free/total (MiB): 31959 / 33009 / 64969
------------------
     c_bands:  5 eigenvalues not converged
     ethr =  2.54E-05,  avg # of iterations = 20.0

     negative rho (up, down):  3.838E-02 0.000E+00

     total cpu time spent up to now is       87.8 secs

     total energy              =   -9095.85988559 Ry
     estimated scf accuracy    <       0.23586643 Ry
[tb_dev] Currently allocated     2.41E+01 Mbytes, locked:    0 /   6
[tb_pin] Currently allocated     0.00E+00 Mbytes, locked:    0 /   0

     iteration # 14     ecut=    90.00 Ry     beta= 0.20
     Davidson diagonalization with overlap

---- Real-time Memory Report at c_bands before calling an iterative solver
         10670 MiB given to the printing process from OS
         -1894 MiB allocation reported by mallinfo(arena+hblkhd)
        463915 MiB available memory on the node where the printing process lives
     GPU memory used/free/total (MiB): 31983 / 32985 / 64969
------------------
     c_bands:  3 eigenvalues not converged
     ethr =  1.69E-05,  avg # of iterations = 20.0

     negative rho (up, down):  3.864E-02 0.000E+00

     total cpu time spent up to now is       92.6 secs

     total energy              =   -9095.87000360 Ry
     estimated scf accuracy    <       0.10675821 Ry
[tb_dev] Currently allocated     2.41E+01 Mbytes, locked:    0 /   6
[tb_pin] Currently allocated     0.00E+00 Mbytes, locked:    0 /   0

     iteration # 15     ecut=    90.00 Ry     beta= 0.20
     Davidson diagonalization with overlap

---- Real-time Memory Report at c_bands before calling an iterative solver
         10670 MiB given to the printing process from OS
         -1894 MiB allocation reported by mallinfo(arena+hblkhd)
        463915 MiB available memory on the node where the printing process lives
     GPU memory used/free/total (MiB): 31983 / 32985 / 64969
------------------
     ethr =  7.67E-06,  avg # of iterations = 28.0

     negative rho (up, down):  3.908E-02 0.000E+00

     total cpu time spent up to now is       99.0 secs

     total energy              =   -9095.88082861 Ry
     estimated scf accuracy    <       0.05750615 Ry
[tb_dev] Currently allocated     2.41E+01 Mbytes, locked:    0 /   6
[tb_pin] Currently allocated     0.00E+00 Mbytes, locked:    0 /   0

     iteration # 16     ecut=    90.00 Ry     beta= 0.20
     Davidson diagonalization with overlap

---- Real-time Memory Report at c_bands before calling an iterative solver
         10670 MiB given to the printing process from OS
         -1894 MiB allocation reported by mallinfo(arena+hblkhd)
        463915 MiB available memory on the node where the printing process lives
     GPU memory used/free/total (MiB): 31983 / 32985 / 64969
------------------
     ethr =  4.13E-06,  avg # of iterations =  2.0

     negative rho (up, down):  3.948E-02 0.000E+00

     total cpu time spent up to now is      102.5 secs

     total energy              =   -9095.88306844 Ry
     estimated scf accuracy    <       0.00885877 Ry
[tb_dev] Currently allocated     2.41E+01 Mbytes, locked:    0 /   6
[tb_pin] Currently allocated     0.00E+00 Mbytes, locked:    0 /   0

     iteration # 17     ecut=    90.00 Ry     beta= 0.20
     Davidson diagonalization with overlap

---- Real-time Memory Report at c_bands before calling an iterative solver
         10670 MiB given to the printing process from OS
         -1894 MiB allocation reported by mallinfo(arena+hblkhd)
        463915 MiB available memory on the node where the printing process lives
     GPU memory used/free/total (MiB): 31983 / 32985 / 64969
------------------
     c_bands:  2 eigenvalues not converged
     ethr =  6.36E-07,  avg # of iterations = 20.0

     negative rho (up, down):  3.972E-02 0.000E+00

     total cpu time spent up to now is      107.3 secs

     total energy              =   -9095.88414589 Ry
     estimated scf accuracy    <       0.00381371 Ry
[tb_dev] Currently allocated     2.41E+01 Mbytes, locked:    0 /   6
[tb_pin] Currently allocated     0.00E+00 Mbytes, locked:    0 /   0

     iteration # 18     ecut=    90.00 Ry     beta= 0.20
     Davidson diagonalization with overlap

---- Real-time Memory Report at c_bands before calling an iterative solver
         10670 MiB given to the printing process from OS
         -1894 MiB allocation reported by mallinfo(arena+hblkhd)
        463914 MiB available memory on the node where the printing process lives
     GPU memory used/free/total (MiB): 31983 / 32985 / 64969
------------------
     ethr =  2.74E-07,  avg # of iterations =  2.0

     negative rho (up, down):  3.996E-02 0.000E+00

     total cpu time spent up to now is      110.9 secs

     total energy              =   -9095.88422305 Ry
     estimated scf accuracy    <       0.00175910 Ry
[tb_dev] Currently allocated     2.41E+01 Mbytes, locked:    0 /   6
[tb_pin] Currently allocated     0.00E+00 Mbytes, locked:    0 /   0

     iteration # 19     ecut=    90.00 Ry     beta= 0.20
     Davidson diagonalization with overlap

---- Real-time Memory Report at c_bands before calling an iterative solver
         10670 MiB given to the printing process from OS
         -1894 MiB allocation reported by mallinfo(arena+hblkhd)
        463915 MiB available memory on the node where the printing process lives
     GPU memory used/free/total (MiB): 31983 / 32985 / 64969
------------------
     ethr =  1.26E-07,  avg # of iterations =  5.0

     negative rho (up, down):  4.017E-02 0.000E+00

     total cpu time spent up to now is      114.6 secs

     total energy              =   -9095.88430021 Ry
     estimated scf accuracy    <       0.00062818 Ry
[tb_dev] Currently allocated     2.41E+01 Mbytes, locked:    0 /   6
[tb_pin] Currently allocated     0.00E+00 Mbytes, locked:    0 /   0

     iteration # 20     ecut=    90.00 Ry     beta= 0.20
     Davidson diagonalization with overlap

---- Real-time Memory Report at c_bands before calling an iterative solver
         10670 MiB given to the printing process from OS
         -1894 MiB allocation reported by mallinfo(arena+hblkhd)
        463914 MiB available memory on the node where the printing process lives
     GPU memory used/free/total (MiB): 31983 / 32985 / 64969
------------------
     ethr =  4.51E-08,  avg # of iterations =  4.0

     negative rho (up, down):  4.029E-02 0.000E+00

     total cpu time spent up to now is      118.5 secs

     total energy              =   -9095.88434840 Ry
     estimated scf accuracy    <       0.00025487 Ry
[tb_dev] Currently allocated     2.41E+01 Mbytes, locked:    0 /   6
[tb_pin] Currently allocated     0.00E+00 Mbytes, locked:    0 /   0

     iteration # 21     ecut=    90.00 Ry     beta= 0.20
     Davidson diagonalization with overlap

---- Real-time Memory Report at c_bands before calling an iterative solver
         10670 MiB given to the printing process from OS
         -1894 MiB allocation reported by mallinfo(arena+hblkhd)
        463915 MiB available memory on the node where the printing process lives
     GPU memory used/free/total (MiB): 31983 / 32985 / 64969
------------------
     ethr =  1.83E-08,  avg # of iterations =  2.0

     negative rho (up, down):  4.037E-02 0.000E+00

     total cpu time spent up to now is      122.0 secs

     total energy              =   -9095.88436616 Ry
     estimated scf accuracy    <       0.00010709 Ry
[tb_dev] Currently allocated     2.41E+01 Mbytes, locked:    0 /   6
[tb_pin] Currently allocated     0.00E+00 Mbytes, locked:    0 /   0

     iteration # 22     ecut=    90.00 Ry     beta= 0.20
     Davidson diagonalization with overlap

---- Real-time Memory Report at c_bands before calling an iterative solver
         10670 MiB given to the printing process from OS
         -1894 MiB allocation reported by mallinfo(arena+hblkhd)
        463915 MiB available memory on the node where the printing process lives
     GPU memory used/free/total (MiB): 31983 / 32985 / 64969
------------------
     ethr =  7.69E-09,  avg # of iterations =  2.0

     negative rho (up, down):  4.042E-02 0.000E+00

     total cpu time spent up to now is      125.8 secs

     total energy              =   -9095.88437475 Ry
     estimated scf accuracy    <       0.00003908 Ry
[tb_dev] Currently allocated     2.41E+01 Mbytes, locked:    0 /   6
[tb_pin] Currently allocated     0.00E+00 Mbytes, locked:    0 /   0

     iteration # 23     ecut=    90.00 Ry     beta= 0.20
     Davidson diagonalization with overlap

---- Real-time Memory Report at c_bands before calling an iterative solver
         10670 MiB given to the printing process from OS
         -1894 MiB allocation reported by mallinfo(arena+hblkhd)
        463914 MiB available memory on the node where the printing process lives
     GPU memory used/free/total (MiB): 31983 / 32985 / 64969
------------------
     ethr =  2.81E-09,  avg # of iterations =  4.0

     negative rho (up, down):  4.045E-02 0.000E+00

     total cpu time spent up to now is      129.6 secs

     total energy              =   -9095.88438038 Ry
     estimated scf accuracy    <       0.00001465 Ry
[tb_dev] Currently allocated     2.41E+01 Mbytes, locked:    0 /   6
[tb_pin] Currently allocated     0.00E+00 Mbytes, locked:    0 /   0

     iteration # 24     ecut=    90.00 Ry     beta= 0.20
     Davidson diagonalization with overlap

---- Real-time Memory Report at c_bands before calling an iterative solver
         10670 MiB given to the printing process from OS
         -1894 MiB allocation reported by mallinfo(arena+hblkhd)
        463914 MiB available memory on the node where the printing process lives
     GPU memory used/free/total (MiB): 31983 / 32985 / 64969
------------------
     ethr =  1.05E-09,  avg # of iterations =  4.0

     negative rho (up, down):  4.048E-02 0.000E+00

     total cpu time spent up to now is      133.3 secs

     total energy              =   -9095.88438188 Ry
     estimated scf accuracy    <       0.00000558 Ry
[tb_dev] Currently allocated     2.41E+01 Mbytes, locked:    0 /   6
[tb_pin] Currently allocated     0.00E+00 Mbytes, locked:    0 /   0

     iteration # 25     ecut=    90.00 Ry     beta= 0.20
     Davidson diagonalization with overlap

---- Real-time Memory Report at c_bands before calling an iterative solver
         10670 MiB given to the printing process from OS
         -1894 MiB allocation reported by mallinfo(arena+hblkhd)
        463914 MiB available memory on the node where the printing process lives
     GPU memory used/free/total (MiB): 31983 / 32985 / 64969
------------------
     ethr =  4.01E-10,  avg # of iterations =  4.0

     negative rho (up, down):  4.050E-02 0.000E+00

     total cpu time spent up to now is      137.2 secs

     total energy              =   -9095.88438248 Ry
     estimated scf accuracy    <       0.00000262 Ry
[tb_dev] Currently allocated     2.41E+01 Mbytes, locked:    0 /   6
[tb_pin] Currently allocated     0.00E+00 Mbytes, locked:    0 /   0

     iteration # 26     ecut=    90.00 Ry     beta= 0.20
     Davidson diagonalization with overlap

---- Real-time Memory Report at c_bands before calling an iterative solver
         10670 MiB given to the printing process from OS
         -1894 MiB allocation reported by mallinfo(arena+hblkhd)
        463915 MiB available memory on the node where the printing process lives
     GPU memory used/free/total (MiB): 31983 / 32985 / 64969
------------------
     ethr =  1.88E-10,  avg # of iterations =  4.0

     negative rho (up, down):  4.052E-02 0.000E+00

     total cpu time spent up to now is      141.0 secs

     total energy              =   -9095.88438292 Ry
     estimated scf accuracy    <       0.00000084 Ry
[tb_dev] Currently allocated     2.41E+01 Mbytes, locked:    0 /   6
[tb_pin] Currently allocated     0.00E+00 Mbytes, locked:    0 /   0

     iteration # 27     ecut=    90.00 Ry     beta= 0.20
     Davidson diagonalization with overlap

---- Real-time Memory Report at c_bands before calling an iterative solver
         10670 MiB given to the printing process from OS
         -1894 MiB allocation reported by mallinfo(arena+hblkhd)
        464058 MiB available memory on the node where the printing process lives
     GPU memory used/free/total (MiB): 31983 / 32985 / 64969
------------------
     ethr =  6.06E-11,  avg # of iterations =  4.0

     negative rho (up, down):  4.052E-02 0.000E+00

     total cpu time spent up to now is      145.0 secs

     total energy              =   -9095.88438309 Ry
     estimated scf accuracy    <       0.00000031 Ry
[tb_dev] Currently allocated     2.41E+01 Mbytes, locked:    0 /   6
[tb_pin] Currently allocated     0.00E+00 Mbytes, locked:    0 /   0

     iteration # 28     ecut=    90.00 Ry     beta= 0.20
     Davidson diagonalization with overlap

---- Real-time Memory Report at c_bands before calling an iterative solver
         10670 MiB given to the printing process from OS
         -1894 MiB allocation reported by mallinfo(arena+hblkhd)
        463915 MiB available memory on the node where the printing process lives
     GPU memory used/free/total (MiB): 31983 / 32985 / 64969
------------------
     ethr =  2.26E-11,  avg # of iterations =  2.0

     negative rho (up, down):  4.053E-02 0.000E+00

     total cpu time spent up to now is      148.6 secs

     total energy              =   -9095.88438315 Ry
     estimated scf accuracy    <       0.00000015 Ry
[tb_dev] Currently allocated     2.41E+01 Mbytes, locked:    0 /   6
[tb_pin] Currently allocated     0.00E+00 Mbytes, locked:    0 /   0

     iteration # 29     ecut=    90.00 Ry     beta= 0.20
     Davidson diagonalization with overlap

---- Real-time Memory Report at c_bands before calling an iterative solver
         10670 MiB given to the printing process from OS
         -1894 MiB allocation reported by mallinfo(arena+hblkhd)
        463915 MiB available memory on the node where the printing process lives
     GPU memory used/free/total (MiB): 31983 / 32985 / 64969
------------------
     ethr =  1.08E-11,  avg # of iterations =  4.0

     negative rho (up, down):  4.056E-02 0.000E+00

     total cpu time spent up to now is      152.2 secs

[...]
     atom  143 type  1   force =    -0.00001173   -0.00000284    0.00000223
     atom  144 type  1   force =    -0.00001052    0.00000143    0.00002294
     atom  145 type  1   force =     0.00001445    0.00000349    0.00001878
     atom  146 type  1   force =     0.00000958    0.00002455    0.00001370
     atom  147 type  1   force =    -0.00000484    0.00001029   -0.00000427
     atom  148 type  1   force =    -0.00000717   -0.00000169   -0.00000087
     atom  149 type  1   force =    -0.00000051    0.00000543    0.00002076
     atom  150 type  4   force =     0.00000413    0.00000254    0.00002111
     atom  151 type  2   force =    -0.00000304   -0.00000363   -0.00000791
     atom  152 type  2   force =     0.00000481    0.00000012   -0.00000649
     atom  153 type  2   force =    -0.00000209    0.00000277   -0.00000650
     atom  154 type  2   force =     0.00000344    0.00000232   -0.00000203
     atom  155 type  2   force =    -0.00000141    0.00000017   -0.00000057
     atom  156 type  2   force =    -0.00000336    0.00000169   -0.00000395
     atom  157 type  2   force =     0.00000929   -0.00000798    0.00000097
     atom  158 type  2   force =     0.00000580    0.00001329    0.00000477
     atom  159 type  2   force =    -0.00001225   -0.00000631    0.00000126
     atom  160 type  2   force =     0.00000447   -0.00000083    0.00000269
     atom  161 type  2   force =    -0.00000534    0.00000040    0.00000033
     atom  162 type  2   force =    -0.00000101   -0.00000531    0.00000008
     atom  163 type  2   force =    -0.00000021    0.00000144    0.00000243
     atom  164 type  2   force =    -0.00000047    0.00000154    0.00000094
     atom  165 type  3   force =     0.00000437    0.00001270    0.00001923
     atom  166 type  3   force =    -0.00000028   -0.00000580   -0.00003948
     atom  167 type  1   force =     0.00001289   -0.00000207    0.00002256
     atom  168 type  1   force =     0.00000270    0.00000797   -0.00002587
     atom  169 type  1   force =    -0.00001527    0.00000366   -0.00000079
     atom  170 type  1   force =     0.00000515   -0.00001309   -0.00000216
     atom  171 type  1   force =     0.00000978    0.00001178   -0.00000285
     atom  172 type  1   force =    -0.00001209   -0.00001395    0.00002320
     atom  173 type  1   force =    -0.00000152    0.00000415    0.00001044
     atom  174 type  1   force =    -0.00000093    0.00000096    0.00002665
     atom  175 type  4   force =     0.00000554    0.00000894    0.00000199
     atom  176 type  2   force =    -0.00000651   -0.00000070    0.00000435
     atom  177 type  2   force =     0.00000249   -0.00000524    0.00000490
     atom  178 type  2   force =     0.00000171    0.00000386    0.00000164
     atom  179 type  2   force =    -0.00000181   -0.00000188    0.00000620
     atom  180 type  2   force =    -0.00000380   -0.00000103    0.00000821
     atom  181 type  2   force =     0.00000016    0.00000082    0.00000964
     atom  182 type  2   force =     0.00000655   -0.00000198    0.00000819
     atom  183 type  2   force =    -0.00000976    0.00000595    0.00000702
     atom  184 type  2   force =    -0.00000626   -0.00000657    0.00001236
     atom  185 type  2   force =     0.00000398   -0.00000750   -0.00000263
     atom  186 type  2   force =    -0.00000036   -0.00000213   -0.00000665
     atom  187 type  2   force =    -0.00000161    0.00000071    0.00000603
     atom  188 type  2   force =     0.00000112   -0.00000088    0.00000309
     atom  189 type  2   force =     0.00000259    0.00000023    0.00000453
     atom  190 type  3   force =     0.00002520   -0.00005357    0.00000905
     atom  191 type  3   force =     0.00000386   -0.00000985    0.00006617
     atom  192 type  1   force =     0.00000995   -0.00000645   -0.00000232
     atom  193 type  1   force =     0.00000720   -0.00001208    0.00000497
     atom  194 type  1   force =    -0.00000018   -0.00001240    0.00001023
     atom  195 type  1   force =     0.00000408   -0.00000642    0.00001296
     atom  196 type  1   force =    -0.00000123    0.00001681    0.00001557
     atom  197 type  1   force =     0.00000153   -0.00001441    0.00000468
     atom  198 type  1   force =    -0.00000656    0.00000236    0.00000855
     atom  199 type  1   force =     0.00000227   -0.00000231    0.00001575
     atom  200 type  4   force =     0.00001217   -0.00000069    0.00001055
     atom  201 type  2   force =    -0.00000119   -0.00000397   -0.00000844
     atom  202 type  2   force =     0.00000499    0.00000043   -0.00000830
     atom  203 type  2   force =    -0.00000340    0.00000450   -0.00000826
     atom  204 type  2   force =     0.00000503    0.00000513   -0.00000139
     atom  205 type  2   force =     0.00000107    0.00000169   -0.00000194
     atom  206 type  2   force =    -0.00000426    0.00000120   -0.00000718
     atom  207 type  2   force =     0.00001177   -0.00000703    0.00000137
     atom  208 type  2   force =     0.00000427    0.00001666   -0.00000467
     atom  209 type  2   force =    -0.00001745   -0.00000055    0.00000295
     atom  210 type  2   force =     0.00001177   -0.00000939   -0.00000286
     atom  211 type  2   force =     0.00000064    0.00000860    0.00000331
     atom  212 type  2   force =    -0.00000603   -0.00000723   -0.00000119
     atom  213 type  2   force =     0.00000008   -0.00000050    0.00000377
     atom  214 type  2   force =    -0.00000085    0.00000020    0.00000132
     atom  215 type  3   force =    -0.00003787    0.00000657   -0.00000021
     atom  216 type  3   force =    -0.00000935    0.00001646   -0.00003247
     atom  217 type  1   force =     0.00002303   -0.00000584    0.00002027
     atom  218 type  1   force =    -0.00001583    0.00000224   -0.00003368
     atom  219 type  1   force =    -0.00002022    0.00000995    0.00000232
     atom  220 type  1   force =     0.00000944   -0.00002279   -0.00000188
     atom  221 type  1   force =     0.00001102    0.00002070    0.00000303
     atom  222 type  1   force =    -0.00001115   -0.00001474    0.00001278
     atom  223 type  1   force =    -0.00001335    0.00001926    0.00001702
     atom  224 type  1   force =    -0.00000166    0.00000288    0.00003147
     atom  225 type  4   force =    -0.00000175   -0.00000002    0.00000684
     atom  226 type  2   force =    -0.00000385    0.00000424    0.00000405
     atom  227 type  2   force =     0.00000264   -0.00000280    0.00000168
     atom  228 type  2   force =    -0.00000449    0.00000137    0.00000179
     atom  229 type  2   force =     0.00000275    0.00000035    0.00000657
     atom  230 type  2   force =    -0.00000136    0.00000941    0.00000910
     atom  231 type  2   force =    -0.00000817    0.00000340   -0.00000142
     atom  232 type  2   force =     0.00000363   -0.00000300    0.00000699
     atom  233 type  2   force =    -0.00000387    0.00000120    0.00001371
     atom  234 type  2   force =    -0.00000579   -0.00000251    0.00000764
     atom  235 type  2   force =    -0.00000259    0.00000742    0.00000836
     atom  236 type  2   force =     0.00000499    0.00000346    0.00000937
     atom  237 type  2   force =    -0.00000457    0.00000170    0.00000528
     atom  238 type  2   force =    -0.00000369    0.00000675    0.00000833
     atom  239 type  2   force =     0.00000186   -0.00000630    0.00000471
     atom  240 type  3   force =     0.00002066    0.00002410    0.00004695
     atom  241 type  3   force =    -0.00001369   -0.00000926    0.00005305
     atom  242 type  1   force =     0.00002121    0.00000424    0.00001424
     atom  243 type  1   force =     0.00000223    0.00000178    0.00000189
     atom  244 type  1   force =    -0.00000839   -0.00000970    0.00000895
     atom  245 type  1   force =     0.00000630   -0.00000252    0.00000107
     atom  246 type  1   force =    -0.00000086    0.00001100    0.00000564
     atom  247 type  1   force =    -0.00000573   -0.00001194    0.00001546
     atom  248 type  1   force =    -0.00001004    0.00001685    0.00001633
     atom  249 type  1   force =    -0.00000418    0.00000465    0.00002423
     atom  250 type  4   force =     0.00000018   -0.00000357    0.00001254
     atom  251 type  2   force =    -0.00000129   -0.00000453   -0.00001004
     atom  252 type  2   force =     0.00000459    0.00000207   -0.00000966
     atom  253 type  2   force =    -0.00000344    0.00000308   -0.00000876
     atom  254 type  2   force =     0.00000057   -0.00000223    0.00000147
     atom  255 type  2   force =     0.00000468    0.00000056   -0.00000590
     atom  256 type  2   force =     0.00000024   -0.00001342   -0.00000596
     atom  257 type  2   force =     0.00001836   -0.00000988    0.00000029
     atom  258 type  2   force =    -0.00000316    0.00002194    0.00000041
     atom  259 type  2   force =    -0.00001912   -0.00001350    0.00000359
     atom  260 type  2   force =     0.00000916   -0.00001357    0.00000879
     atom  261 type  2   force =    -0.00000280    0.00000508    0.00000331
     atom  262 type  2   force =    -0.00001261   -0.00000613   -0.00000403
     atom  263 type  2   force =    -0.00000063   -0.00000074    0.00000589
     atom  264 type  2   force =    -0.00000110   -0.00000348    0.00000183
     atom  265 type  3   force =     0.00000795    0.00000643   -0.00002242
     atom  266 type  3   force =     0.00001846    0.00000319   -0.00004474
     atom  267 type  1   force =    -0.00002770   -0.00000255   -0.00000973
     atom  268 type  1   force =     0.00000200    0.00000112    0.00002373
     atom  269 type  1   force =    -0.00002139    0.00000352   -0.00000608
     atom  270 type  1   force =     0.00001352   -0.00001783    0.00000234
     atom  271 type  1   force =     0.00001706    0.00001076    0.00000190
     atom  272 type  1   force =     0.00001999    0.00002338    0.00000294
     atom  273 type  1   force =     0.00001094   -0.00002608   -0.00000439
     atom  274 type  1   force =     0.00000204   -0.00000326    0.00002879
     atom  275 type  4   force =    -0.00001090    0.00000299   -0.00000231
     atom  276 type  2   force =     0.00000132   -0.00000274   -0.00000138
     atom  277 type  2   force =    -0.00000019   -0.00000463   -0.00000107
     atom  278 type  2   force =    -0.00000245    0.00000021   -0.00000228
     atom  279 type  2   force =    -0.00000099    0.00000161    0.00000262
     atom  280 type  2   force =     0.00000462    0.00000140   -0.00000170
     atom  281 type  2   force =    -0.00000468    0.00000174    0.00000746
     atom  282 type  2   force =    -0.00000814   -0.00000447    0.00000485
     atom  283 type  2   force =     0.00000166    0.00000028    0.00001373
     atom  284 type  2   force =    -0.00000230    0.00000041    0.00001509
     atom  285 type  2   force =     0.00000193   -0.00000665    0.00000946
     atom  286 type  2   force =     0.00001084   -0.00000414    0.00000737
     atom  287 type  2   force =     0.00000012    0.00000028    0.00000882
     atom  288 type  2   force =    -0.00000320    0.00000204    0.00000206
     atom  289 type  2   force =    -0.00000142    0.00000220    0.00000223
     atom  290 type  3   force =    -0.00001767   -0.00000843    0.00004859
     atom  291 type  3   force =    -0.00001541   -0.00002185    0.00006337
     atom  292 type  1   force =    -0.00004865    0.00000938   -0.00000455
     atom  293 type  1   force =    -0.00000227   -0.00000819    0.00007735
     atom  294 type  1   force =    -0.00001476   -0.00001451    0.00000747
     atom  295 type  1   force =     0.00000897   -0.00001067    0.00000824
     atom  296 type  1   force =    -0.00000401    0.00000419    0.00000279
     atom  297 type  1   force =     0.00003296    0.00003645   -0.00000938
     atom  298 type  1   force =     0.00001543   -0.00005191   -0.00001856
     atom  299 type  1   force =    -0.00000248   -0.00000113    0.00003194
     atom  300 type  4   force =     0.00000613    0.00000233    0.00002660

     Total force =     1.068685     Total SCF correction =     0.000403


     Computing stress (Cartesian axis) and pressure


     negative rho (up, down):  4.056E-02 0.000E+00
          total   stress  (Ry/bohr**3)                   (kbar)     P=        4.38
   0.00004631   0.00000311   0.00000636            6.81        0.46        0.94
   0.00000311   0.00006734   0.00001246            0.46        9.91        1.83
   0.00000636   0.00001246  -0.00002429            0.94        1.83       -3.57

     kinetic stress (kbar)   5333.62      0.72      1.96
                                0.72   5335.19      2.21
                                1.96      2.21   5327.22

     local   stress (kbar)-647941.93     32.41     10.67
                               32.41-647575.82    217.91
                               10.67    217.91 641343.83

     nonloc. stress (kbar)    958.38      0.15      0.68
                                0.15    957.26     -0.05
                                0.68     -0.05    954.71

     hartree stress (kbar) 324566.31    -13.84     -7.89
                              -13.84 324425.99    -87.95
                               -7.89    -87.95-318608.88

     exc-cor stress (kbar)  -1263.73     -0.02      0.08
                               -0.02  -1264.25     -0.19
                                0.08     -0.19  -1265.93

     corecor stress (kbar)   -292.88     -0.01     -0.02
                               -0.01   -292.83      0.00
                               -0.02      0.00   -292.76

     ewald   stress (kbar) 318647.04    -18.95     -4.53
                              -18.95 318424.37   -130.11
                               -4.53   -130.11-327461.76

     hubbard stress (kbar)      0.00      0.00      0.00
                                0.00      0.00      0.00
                                0.00      0.00      0.00

     DFT-D   stress (kbar)      0.00      0.00      0.00
                                0.00      0.00      0.00
                                0.00      0.00      0.00

     XDM     stress (kbar)      0.00      0.00      0.00
                                0.00      0.00      0.00
                                0.00      0.00      0.00

     dft-nl  stress (kbar)      0.00      0.00      0.00
                                0.00      0.00      0.00
                                0.00      0.00      0.00

     TS-vdW  stress (kbar)      0.00      0.00      0.00
                                0.00      0.00      0.00
                                0.00      0.00      0.00

     MDB     stress (kbar)      0.00      0.00      0.00
                                0.00      0.00      0.00
                                0.00      0.00      0.00

     3D-RISM stress (kbar)      0.00      0.00      0.00
                                0.00      0.00      0.00
                                0.00      0.00      0.00


     Writing all to output data dir ./tmp/pwscf.save/
 
     init_run     :     29.35s CPU     34.14s WALL (       1 calls)
     electrons    :    110.96s CPU    117.74s WALL (       1 calls)
     forces       :      3.11s CPU      3.33s WALL (       1 calls)
     stress       :     81.06s CPU     83.51s WALL (       1 calls)

     Called by init_run:
     wfcinit      :      3.46s CPU      5.38s WALL (       1 calls)
                                        5.38s GPU  (       1 calls)
     wfcinit:atom :      0.01s CPU      0.01s WALL (       1 calls)
                                        0.01s GPU  (       1 calls)
     wfcinit:wfcr :      1.25s CPU      2.39s WALL (       1 calls)
                                        2.39s GPU  (       1 calls)
     potinit      :     16.35s CPU     16.61s WALL (       1 calls)
     hinit0       :      7.20s CPU      7.44s WALL (       1 calls)

     Called by electrons:
     c_bands      :     69.38s CPU     71.03s WALL (      29 calls)
     sum_band     :     15.85s CPU     16.24s WALL (      29 calls)
     v_of_rho     :      3.22s CPU      3.38s WALL (      30 calls)
     v_h          :      1.75s CPU      1.83s WALL (      30 calls)
     v_xc         :      1.60s CPU      1.68s WALL (      32 calls)
     newd         :      2.43s CPU      4.83s WALL (      30 calls)
                                        4.83s GPU  (      30 calls)
     PAW_pot      :      3.26s CPU      3.28s WALL (      30 calls)
     mix_rho      :      8.01s CPU      8.27s WALL (      29 calls)

     Called by c_bands:
     init_us_2    :      0.47s CPU      0.64s WALL (      59 calls)
     init_us_2:gp :      0.46s CPU      0.64s WALL (      59 calls)
     regterg      :     60.25s CPU     61.67s WALL (      30 calls)

     Called by sum_band:
     sum_band:wei :      0.01s CPU      0.01s WALL (      29 calls)
                                        0.01s GPU  (      29 calls)
     sum_band:loo :     12.47s CPU     12.78s WALL (      29 calls)
                                       12.78s GPU  (      29 calls)
     sum_band:buf :      1.88s CPU      1.89s WALL (      29 calls)
                                        1.89s GPU  (      29 calls)
     sum_band:ini :      0.23s CPU      0.47s WALL (      29 calls)
                                        0.47s GPU  (      29 calls)
     sum_band:cal :      2.07s CPU      2.13s WALL (      29 calls)
                                        2.13s GPU  (      29 calls)
     sum_band:bec :      0.20s CPU      0.20s WALL (      29 calls)
                                        0.20s GPU  (      29 calls)
     addusdens    :      2.07s CPU      2.14s WALL (      29 calls)
                                        2.14s GPU  (      29 calls)
     addusd:skk   :      0.44s CPU      0.44s WALL (     116 calls)
                                        0.44s GPU  (     116 calls)

     Called by *egterg:
     rdiaghg      :      5.65s CPU      5.74s WALL (     215 calls)
                                        5.74s GPU  (     215 calls)
     regterg:over :      3.62s CPU      3.71s WALL (     185 calls)
     regterg:upda :      1.97s CPU      2.02s WALL (     185 calls)
     regterg:last :      3.97s CPU      3.98s WALL (      63 calls)
     h_psi        :     38.92s CPU     41.07s WALL (     216 calls)
                                       41.07s GPU  (     216 calls)
     s_psi        :      1.00s CPU      4.80s WALL (     216 calls)
                                        4.66s GPU  (     216 calls)
     g_psi        :      0.00s CPU      0.19s WALL (     185 calls)
                                        0.19s GPU  (     185 calls)

     Called by h_psi:
     h_psi:calbec :      5.66s CPU      5.90s WALL (     216 calls)
                                        5.90s GPU  (     216 calls)
     vloc_psi     :     28.89s CPU     30.23s WALL (     216 calls)
                                       30.23s GPU  (     216 calls)
     add_vuspsi   :      0.43s CPU      4.73s WALL (     216 calls)
                                        4.71s GPU  (     216 calls)

     General routines
     calbec       :      8.12s CPU      8.57s WALL (     250 calls)
     fft          :      5.79s CPU      7.60s WALL (     348 calls)
                                        0.78s GPU  (     318 calls)
     ffts         :      2.89s CPU      3.44s WALL (      59 calls)
                                        0.04s GPU  (      29 calls)
     fftw         :     17.37s CPU     29.48s WALL (   16302 calls)
                                       29.30s GPU  (   16302 calls)
     interpolate  :      9.25s CPU     11.45s WALL (      30 calls)
 
     Parallel routines

     PAW routines
     PAW_pot      :      3.26s CPU      3.28s WALL (      30 calls)
 
     PWSCF        :   3m46.89s CPU   4m 6.30s WALL

 
   This run was terminated on:  14: 4:17  30Dec2023            

=------------------------------------------------------------------------------=
   JOB DONE.
=------------------------------------------------------------------------------=
