
     Program PWSCF v.7.2 starts on 30Dec2023 at 14:33:56 

     This program is part of the open-source Quantum ESPRESSO suite
     for quantum simulation of materials; please cite
         "P. Giannozzi et al., J. Phys.:Condens. Matter 21 395502 (2009);
         "P. Giannozzi et al., J. Phys.:Condens. Matter 29 465901 (2017);
         "P. Giannozzi et al., J. Chem. Phys. 152 154105 (2020);
          URL http://www.quantum-espresso.org", 
     in publications or presentations arising from this work. More details at
     http://www.quantum-espresso.org/quote

     Parallel version (MPI & OpenMP), running on       4 processor cores
     Number of MPI processes:                 4
     Threads/MPI process:                     1

     MPI processes distributed on     1 nodes
     504167 MiB available memory on the printing compute node when the environment starts
 
     Reading input from input_0017.inp

     Current dimensions of program PWSCF are:
     Max number of different atomic species (ntypx) = 10
     Max number of k-points (npk) =  40000
     Max angular momentum in pseudopotentials (lmaxx) =  4
     file O.pbe-n-kjpaw_psl.0.1.UPF: wavefunction(s)  2P renormalized

     gamma-point specific algorithms are used
 
     R & G space division:  proc/nbgrp/npool/nimage =       4
     Subspace diagonalization in iterative solution of the eigenvalue problem:
     a serial algorithm will be used

 
     Parallelization info
     --------------------
     sticks:   dense  smooth     PW     G-vecs:    dense   smooth      PW
     Min        6485    4324   1079              2728975  1485363  185656
     Max        6486    4326   1080              2728990  1485382  185664
     Sum       25943   17301   4319             10915929  5941483  742635
 
     Using Slab Decomposition
 


     bravais-lattice index     =            0
     lattice parameter (alat)  =      32.3352  a.u.
     unit-cell volume          =   51510.8153 (a.u.)^3
     number of atoms/cell      =          300
     number of atomic types    =            4
     number of electrons       =      1392.00
     number of Kohn-Sham states=          835
     kinetic-energy cutoff     =      90.0000  Ry
     charge density cutoff     =     540.0000  Ry
     scf convergence threshold =      1.0E-07
     mixing beta               =       0.2000
     number of iterations used =            8  plain     mixing
     Exchange-correlation= SLA  PW   PBX  PBC
                           (   1   4   3   4   0   0   0)

     GPU acceleration is ACTIVE.
     GPU-aware MPI enabled


     GPU used by master process:

        Device Number: 0
        Device name: NVIDIA PG506-243
        Compute capability : 80
        Ratio of single to double precision performance  : 2
        Memory Clock Rate (KHz): 1593000
        Memory Bus Width (bits): 4096
        Peak Memory Bandwidth (GB/s): ******

     celldm(1)=  32.335181  celldm(2)=   0.000000  celldm(3)=   0.000000
     celldm(4)=   0.000000  celldm(5)=   0.000000  celldm(6)=   0.000000

     crystal axes: (cart. coord. in units of alat)
               a(1) = (   1.000000   0.000000   0.000000 )  
               a(2) = (  -0.333333   0.577350   0.000000 )  
               a(3) = (   0.000000  -0.000000   2.638962 )  

     reciprocal axes: (cart. coord. in units 2 pi/alat)
               b(1) = (  1.000000  0.577350  0.000000 )  
               b(2) = ( -0.000000  1.732051  0.000000 )  
               b(3) = (  0.000000 -0.000000  0.378937 )  


     PseudoPot. # 1 for N  read from file:
     /leonardo_scratch/large/userexternal/uraucci0/Li_Cr/PPS/N.pbe-n-radius_5.UPF
     MD5 check sum: 16739722b17309cd8fe442a2ace49922
     Pseudo is Ultrasoft + core correction, Zval =  5.0
     Generated using "atomic" code by A. Dal Corso  v.5.1
     Using radial grid of 1085 points,  4 beta functions with: 
                l(1) =   0
                l(2) =   0
                l(3) =   1
                l(4) =   1
     Q(r) pseudized with 0 coefficients 


     PseudoPot. # 2 for Li read from file:
     /leonardo_scratch/large/userexternal/uraucci0/Li_Cr/PPS/li_pbe_v1.4.uspp.F.UPF
     MD5 check sum: e912e257baa3777c20ea3d68f190483c
     Pseudo is Ultrasoft, Zval =  3.0
     Generated by new atomic code, or converted to UPF format
     Using radial grid of  751 points,  5 beta functions with: 
                l(1) =   0
                l(2) =   0
                l(3) =   0
                l(4) =   1
                l(5) =   1
     Q(r) pseudized with 10 coefficients,  rinner =    1.150   1.150   1.150


     PseudoPot. # 3 for Cr read from file:
     /leonardo_scratch/large/userexternal/uraucci0/Li_Cr/PPS/cr_pbe_v1.5.uspp.F.UPF
     MD5 check sum: 0d52af634a40206e4dee301ad30da4bf
     Pseudo is Ultrasoft + core correction, Zval = 14.0
     Generated by new atomic code, or converted to UPF format
     Using radial grid of  857 points,  6 beta functions with: 
                l(1) =   0
                l(2) =   0
                l(3) =   1
                l(4) =   1
                l(5) =   2
                l(6) =   2
     Q(r) pseudized with  8 coefficients,  rinner =    0.950   0.950   0.950
                                                       0.950   0.950

     PseudoPot. # 4 for O  read from file:
     /leonardo_scratch/large/userexternal/uraucci0/Li_Cr/PPS/O.pbe-n-kjpaw_psl.0.1.UPF
     MD5 check sum: 0234752ac141de4415c5fc33072bef88
     Pseudo is Projector augmented-wave + core cor, Zval =  6.0
     Generated using "atomic" code by A. Dal Corso  v.5.0.99 svn rev. 10869
     Shape of augmentation charge: BESSEL
     Using radial grid of 1095 points,  4 beta functions with: 
                l(1) =   0
                l(2) =   0
                l(3) =   1
                l(4) =   1
     Q(r) pseudized with 0 coefficients 


     atomic species   valence    mass     pseudopotential
        N              5.00    14.00674     N ( 1.00)
        Li             3.00     6.94100     Li( 1.00)
        Cr            14.00    51.99610     Cr( 1.00)
        O              6.00    15.99940     O ( 1.00)

     No symmetry found


                                    s                        frac. trans.

      isym =  1     identity                                     

 cryst.   s( 1) = (     1          0          0      )
                  (     0          1          0      )
                  (     0          0          1      )

 cart.    s( 1) = (  1.0000000  0.0000000  0.0000000 )
                  (  0.0000000  1.0000000  0.0000000 )
                  (  0.0000000  0.0000000  1.0000000 )


   Cartesian axes

     site n.     atom                  positions (alat units)
         1           Li  tau(   1) = (   0.2593273   0.0873080   0.8766270  )
         2           Li  tau(   2) = (   0.1280588   0.1809300   0.8766270  )
         3           Li  tau(   3) = (   0.1126144   0.0204373   0.8766270  )
         4           Li  tau(   4) = (  -0.0869737   0.2054066   1.2868007  )
         5           Li  tau(   5) = (   0.0390512   0.1150257   1.2672636  )
         6           Li  tau(   6) = (   0.0453157   0.2665618   1.2823182  )
         7           Li  tau(   7) = (   0.0669942   0.0904568   1.0336250  )
         8           Li  tau(   8) = (   0.2214985   0.0127904   1.0336250  )
         9           Li  tau(   9) = (   0.2115073   0.1854282   1.0336250  )
        10           Li  tau(  10) = (   0.1015163   0.1873352   1.1162091  )
        11           Li  tau(  11) = (  -0.0624550   0.2809356   1.1147422  )
        12           Li  tau(  12) = (  -0.0391292   0.1127331   1.1407605  )
        13           Li  tau(  13) = (   0.0000000   0.0000000   0.9626942  )
        14           Li  tau(  14) = (   0.0103119  -0.0029919   1.1875432  )
        15           Cr  tau(  15) = (   0.1738883   0.0927623   1.2004413  )
        16           Cr  tau(  16) = (  -0.0000000   0.1924500   0.9478909  )
        17           N   tau(  17) = (   0.2679463   0.0858200   1.2364414  )
        18           N   tau(  18) = (   0.1775590   0.1036331   1.1000441  )
        19           N   tau(  19) = (  -0.0969339   0.1982778   0.9168466  )
        20           N   tau(  20) = (   0.0434200   0.1055885   0.9168466  )
        21           N   tau(  21) = (   0.0535141   0.2734837   0.9168466  )
        22           N   tau(  22) = (   0.1115981   0.0227164   1.2433259  )
        23           N   tau(  23) = (   0.1371121   0.1830087   1.2339986  )
        24           N   tau(  24) = (  -0.0000000   0.1924500   1.0497374  )
        25           O   tau(  25) = (   0.6797950   0.5782670   1.0694381  )
        26           Li  tau(  26) = (   0.2644784   0.0847371   1.3715238  )
        27           Li  tau(  27) = (   0.1238738   0.1826873   1.3469315  )
        28           Li  tau(  28) = (   0.0916175   0.0135168   1.3691627  )
        29           Li  tau(  29) = (   0.8920498   0.2148659   1.7746553  )
        30           Li  tau(  30) = (   0.0172070   0.1049492   1.7693780  )
        31           Li  tau(  31) = (   0.0572929   0.2775623   1.7714410  )
        32           Li  tau(  32) = (   0.0545488   0.0909839   1.5410459  )
        33           Li  tau(  33) = (   0.2206324   0.0138619   1.5319115  )
        34           Li  tau(  34) = (   0.2099580   0.1723063   1.5282121  )
        35           Li  tau(  35) = (   0.0906923   0.2264894   1.6131397  )
        36           Li  tau(  36) = (  -0.0678702   0.2707842   1.6272067  )
        37           Li  tau(  37) = (  -0.0625777   0.0889584   1.6293982  )
        38           Li  tau(  38) = (  -0.0006808   0.0034779   1.4578832  )
        39           Li  tau(  39) = (  -0.0117791  -0.0046775   1.6829484  )
        40           Cr  tau(  40) = (   0.1595800   0.0961175   1.7010771  )
        41           Cr  tau(  41) = (   0.0057336   0.1936411   1.4329753  )
        42           N   tau(  42) = (   0.2540161   0.0810366   1.7271421  )
        43           N   tau(  43) = (   0.1619299   0.0937851   1.5937429  )
        44           N   tau(  44) = (  -0.1020137   0.1932489   1.4019953  )
        45           N   tau(  45) = (   0.0433510   0.1097771   1.3983603  )
        46           N   tau(  46) = (   0.0592968   0.2683139   1.3974252  )
        47           N   tau(  47) = (   0.1076387   0.0191430   1.7394850  )
        48           N   tau(  48) = (   0.1260023   0.1880149   1.7366039  )
        49           N   tau(  49) = (   0.0036071   0.1911321   1.5350439  )
        50           O   tau(  50) = (  -0.0059923   0.0077876   1.5749714  )
        51           Li  tau(  51) = (   0.0926606   0.3759836   0.8766270  )
        52           Li  tau(  52) = (  -0.0386079   0.4696050   0.8766270  )
        53           Li  tau(  53) = (  -0.0540524   0.3091127   0.8766270  )
        54           Li  tau(  54) = (  -0.2593910   0.4907001   1.2787767  )
        55           Li  tau(  55) = (  -0.1320931   0.4020340   1.2686019  )
        56           Li  tau(  56) = (  -0.1140737   0.5578515   1.2747383  )
        57           Li  tau(  57) = (  -0.0996725   0.3791318   1.0336250  )
        58           Li  tau(  58) = (   0.0548319   0.3014656   1.0336250  )
        59           Li  tau(  59) = (   0.0448406   0.4741032   1.0336250  )
        60           Li  tau(  60) = (  -0.0643216   0.4748057   1.1274182  )
        61           Li  tau(  61) = (  -0.2205488   0.5665517   1.1209546  )
        62           Li  tau(  62) = (  -0.1993023   0.3781570   1.1196981  )
        63           Li  tau(  63) = (  -0.1666667   0.2886750   0.9626942  )
        64           Li  tau(  64) = (  -0.1613379   0.2723920   1.2053095  )
        65           Cr  tau(  65) = (   0.0027981   0.3820510   1.2076764  )
        66           Cr  tau(  66) = (  -0.1666667   0.4811250   0.9478909  )
        67           N   tau(  67) = (   0.0958399   0.3958456   1.2329700  )
        68           N   tau(  68) = (  -0.0048862   0.3894596   1.1044974  )
        69           N   tau(  69) = (  -0.2636006   0.4869528   0.9168466  )
        70           N   tau(  70) = (  -0.1232467   0.3942641   0.9168466  )
        71           N   tau(  71) = (  -0.1131527   0.5621587   0.9168466  )
        72           N   tau(  72) = (  -0.0531747   0.3028220   1.2421746  )
        73           N   tau(  73) = (  -0.0469225   0.4676741   1.2392875  )
        74           N   tau(  74) = (  -0.1666667   0.4811250   1.0497374  )
        75           O   tau(  75) = (  -0.1679874   0.2844684   1.0732485  )
        76           Li  tau(  76) = (   0.0953928   0.3806180   1.3609517  )
        77           Li  tau(  77) = (  -0.0483710   0.4801385   1.3715764  )
        78           Li  tau(  78) = (  -0.0558557   0.3107596   1.3819673  )
        79           Li  tau(  79) = (  -0.2742446   0.5025948   1.7792488  )
        80           Li  tau(  80) = (  -0.1320849   0.3980459   1.7720605  )
        81           Li  tau(  81) = (  -0.1174552   0.5704895   1.7764086  )
        82           Li  tau(  82) = (  -0.1006613   0.3769227   1.5328874  )
        83           Li  tau(  83) = (   0.0445123   0.3064992   1.5089438  )
        84           Li  tau(  84) = (   0.0415669   0.4805897   1.5480063  )
        85           Li  tau(  85) = (  -0.0780251   0.4963082   1.6187034  )
        86           Li  tau(  86) = (  -0.2249179   0.5668720   1.6217365  )
        87           Li  tau(  87) = (  -0.2195197   0.3868315   1.5826156  )
        88           Li  tau(  88) = (  -0.1748333   0.2804411   1.4562527  )
        89           Li  tau(  89) = (  -0.1773171   0.3210284   1.6699451  )
        90           Cr  tau(  90) = (  -0.0052722   0.3837347   1.7067927  )
        91           Cr  tau(  91) = (  -0.1727697   0.4897919   1.4468260  )
        92           N   tau(  92) = (   0.0962291   0.3833209   1.7507877  )
        93           N   tau(  93) = (   0.0045148   0.3822216   1.6087566  )
        94           N   tau(  94) = (  -0.2617357   0.4897253   1.4073720  )
        95           N   tau(  95) = (  -0.1235278   0.4047743   1.4176227  )
        96           N   tau(  96) = (  -0.1293545   0.5711423   1.3962155  )
        97           N   tau(  97) = (  -0.0604539   0.3037010   1.7344064  )
        98           N   tau(  98) = (  -0.0485562   0.4717685   1.7492682  )
        99           N   tau(  99) = (  -0.1759501   0.4843709   1.5525297  )
       100           O   tau( 100) = (   0.8340872   0.2921710   1.5659772  )
       101           Li  tau( 101) = (   0.5926583   0.0873080   0.8766270  )
       102           Li  tau( 102) = (   0.4613921   0.1809300   0.8766270  )
       103           Li  tau( 103) = (   0.4459477   0.0204373   0.8766270  )
       104           Li  tau( 104) = (   0.2569879   0.1995191   1.2684325  )
       105           Li  tau( 105) = (   0.3732666   0.1065943   1.2855442  )
       106           Li  tau( 106) = (   0.4069495   0.2821734   1.2898923  )
       107           Li  tau( 107) = (   0.4003275   0.0904568   1.0336250  )
       108           Li  tau( 108) = (   0.5548318   0.0127904   1.0336250  )
       109           Li  tau( 109) = (   0.5448406   0.1854282   1.0336250  )
       110           Li  tau( 110) = (   0.4345691   0.2057566   1.1368391  )
       111           Li  tau( 111) = (   0.2851258   0.2859639   1.1272429  )
       112           Li  tau( 112) = (   0.2899075   0.1069462   1.1179682  )
       113           Li  tau( 113) = (   0.3333333   0.0000000   0.9626942  )
       114           Li  tau( 114) = (  -0.0030080   0.5819056   1.1859886  )
       115           Cr  tau( 115) = (   0.5021015   0.1041146   1.2008211  )
       116           Cr  tau( 116) = (   0.3333333   0.1924500   0.9478909  )
       117           N   tau( 117) = (   0.5990226   0.0936775   1.2386856  )
       118           N   tau( 118) = (   0.4992280   0.1029762   1.0935454  )
       119           N   tau( 119) = (   0.2363994   0.1982778   0.9168466  )
       120           N   tau( 120) = (   0.3767532   0.1055885   0.9168466  )
       121           N   tau( 121) = (   0.3868473   0.2734837   0.9168466  )
       122           N   tau( 122) = (   0.4527889   0.0168579   1.2410934  )
       123           N   tau( 123) = (   0.4579809   0.1861757   1.2353252  )
       124           N   tau( 124) = (   0.3333333   0.1924500   1.0497374  )
       125           O   tau( 125) = (  -0.0003385   0.5790174   1.0822369  )
       126           Li  tau( 126) = (   0.3385282   0.5916355   1.4497949  )
       127           Li  tau( 127) = (   0.4616002   0.1837813   1.3777712  )
       128           Li  tau( 128) = (   0.5884037   0.0695545   1.3663283  )
       129           Li  tau( 129) = (   0.2316650   0.1931870   1.7738021  )
       130           Li  tau( 130) = (   0.3751367   0.1039364   1.7745676  )
       131           Li  tau( 131) = (   0.3857550   0.2546707   1.7814287  )
       132           Li  tau( 132) = (   0.3971079   0.0918156   1.5277212  )
       133           Li  tau( 133) = (   0.0730826   0.4905540   1.7723761  )
       134           Li  tau( 134) = (   0.5586346   0.1723034   1.5228062  )
       135           Li  tau( 135) = (   0.4334704   0.2045761   1.6341788  )
       136           Li  tau( 136) = (   0.2751189   0.2760866   1.6133384  )
       137           Li  tau( 137) = (   0.2748056   0.1086404   1.6259151  )
       138           Li  tau( 138) = (   0.4483462   0.0259623   1.3888284  )
       139           Li  tau( 139) = (   0.0946681   0.5747248   1.6117196  )
       140           Cr  tau( 140) = (   0.4958003   0.0963425   1.7104570  )
       141           Cr  tau( 141) = (   0.3271905   0.1905559   1.4415254  )
       142           N   tau( 142) = (   0.5901219   0.0848896   1.7448792  )
       143           N   tau( 143) = (   0.5064911   0.0957849   1.6007208  )
       144           N   tau( 144) = (   0.2399714   0.1995226   1.3940180  )
       145           N   tau( 145) = (   0.3892943   0.1138376   1.4162610  )
       146           N   tau( 146) = (   0.3784778   0.2837869   1.4133038  )
       147           N   tau( 147) = (   0.4517043   0.0184856   1.7389298  )
       148           N   tau( 148) = (   0.4546614   0.1792813   1.7537098  )
       149           N   tau( 149) = (   0.3198146   0.1933570   1.5421037  )
       150           O   tau( 150) = (   0.3292576   0.0013491   1.5731363  )
       151           Li  tau( 151) = (   0.4259940   0.3759836   0.8766270  )
       152           Li  tau( 152) = (   0.2947255   0.4696050   0.8766270  )
       153           Li  tau( 153) = (   0.2792811   0.3091127   0.8766270  )
       154           Li  tau( 154) = (   0.0737150   0.4966501   1.2767078  )
       155           Li  tau( 155) = (   0.2116102   0.3922806   1.2663578  )
       156           Li  tau( 156) = (   0.2262773   0.5512832   1.2858247  )
       157           Li  tau( 157) = (   0.2336608   0.3791318   1.0336250  )
       158           Li  tau( 158) = (   0.3881652   0.3014656   1.0336250  )
       159           Li  tau( 159) = (   0.3781739   0.4741032   1.0336250  )
       160           Li  tau( 160) = (   0.2803926   0.4949979   1.1236955  )
       161           Li  tau( 161) = (   0.1344489   0.5547307   1.1301475  )
       162           Li  tau( 162) = (   0.1313836   0.3850824   1.1183656  )
       163           Li  tau( 163) = (   0.1666667   0.2886750   0.9626942  )
       164           Li  tau( 164) = (   0.1588810   0.2791695   1.1892146  )
       165           Cr  tau( 165) = (   0.3411341   0.3845096   1.2087751  )
       166           Cr  tau( 166) = (   0.1666667   0.4811250   0.9478909  )
       167           N   tau( 167) = (   0.4342196   0.3718102   1.2384226  )
       168           N   tau( 168) = (   0.3284394   0.3874720   1.1006870  )
       169           N   tau( 169) = (   0.0697328   0.4869528   0.9168466  )
       170           N   tau( 170) = (   0.2100866   0.3942641   0.9168466  )
       171           N   tau( 171) = (   0.2201806   0.5621587   0.9168466  )
       172           N   tau( 172) = (   0.2823475   0.3078977   1.2461895  )
       173           N   tau( 173) = (   0.2915568   0.4665999   1.2496726  )
       174           N   tau( 174) = (   0.1666667   0.4811250   1.0497374  )
       175           O   tau( 175) = (   0.1653809   0.2799122   1.0696427  )
       176           Li  tau( 176) = (   0.4287056   0.3838796   1.3682686  )
       177           Li  tau( 177) = (   0.3033877   0.4684864   1.3705712  )
       178           Li  tau( 178) = (   0.2855279   0.3234672   1.3808745  )
       179           Li  tau( 179) = (   0.3305211  -0.0037068   1.6832640  )
       180           Li  tau( 180) = (   0.2081533   0.3993129   1.7809846  )
       181           Li  tau( 181) = (   0.2306365   0.5624684   1.7732819  )
       182           Li  tau( 182) = (   0.2361990   0.3830965   1.5415953  )
       183           Li  tau( 183) = (   0.3796163   0.3009490   1.5376329  )
       184           Li  tau( 184) = (   0.3630656   0.4761943   1.5186802  )
       185           Li  tau( 185) = (   0.2578511   0.4942996   1.6367034  )
       186           Li  tau( 186) = (   0.3301675  -0.0096271   1.4580703  )
       187           Li  tau( 187) = (   0.1171682   0.3870086   1.6181832  )
       188           Li  tau( 188) = (   0.1829830   0.2834608   1.4530092  )
       189           Li  tau( 189) = (   0.1684900   0.2820302   1.6909082  )
       190           Cr  tau( 190) = (   0.3311879   0.3681974   1.7080784  )
       191           Cr  tau( 191) = (   0.1656714   0.4784162   1.4511215  )
       192           N   tau( 192) = (   0.4268449   0.3706116   1.7433948  )
       193           N   tau( 193) = (   0.3342649   0.3806303   1.6120235  )
       194           N   tau( 194) = (   0.0738155   0.4932143   1.4108493  )
       195           N   tau( 195) = (   0.2047053   0.3928697   1.4144493  )
       196           N   tau( 196) = (   0.2251605   0.5527086   1.4226370  )
       197           N   tau( 197) = (   0.2755373   0.2904563   1.7365045  )
       198           N   tau( 198) = (   0.2923007   0.4625417   1.7390409  )
       199           N   tau( 199) = (   0.1613964   0.4792397   1.5603200  )
       200           O   tau( 200) = (   0.1711737   0.2978638   1.5860929  )
       201           Li  tau( 201) = (   0.9259927   0.0873080   0.8766270  )
       202           Li  tau( 202) = (   0.7947266   0.1809300   0.8766270  )
       203           Li  tau( 203) = (   0.7792805   0.0204373   0.8766270  )
       204           Li  tau( 204) = (   0.5672963   0.2074216   1.2861286  )
       205           Li  tau( 205) = (   0.7046561   0.1196882   1.2867890  )
       206           Li  tau( 206) = (   0.7094834   0.2796586   1.2892377  )
       207           Li  tau( 207) = (   0.7336608   0.0904568   1.0336250  )
       208           Li  tau( 208) = (   0.8881634   0.0127904   1.0336250  )
       209           Li  tau( 209) = (   0.8781757   0.1854282   1.0336250  )
       210           Li  tau( 210) = (   0.7576278   0.1920959   1.1220884  )
       211           Li  tau( 211) = (   0.6246318   0.2720583   1.1115045  )
       212           Li  tau( 212) = (   0.6084902   0.0824152   1.1260040  )
       213           Li  tau( 213) = (   0.6666690   0.0000000   0.9626942  )
       214           Li  tau( 214) = (   0.6692579   0.0073384   1.2114926  )
       215           Cr  tau( 215) = (   0.8380788   0.0935040   1.2123868  )
       216           Cr  tau( 216) = (   0.6666690   0.1924500   0.9478909  )
       217           N   tau( 217) = (  -0.0676914   0.0792272   1.2466980  )
       218           N   tau( 218) = (   0.8367521   0.0889034   1.1064902  )
       219           N   tau( 219) = (   0.5697327   0.1982778   0.9168466  )
       220           N   tau( 220) = (   0.7100854   0.1055885   0.9168466  )
       221           N   tau( 221) = (   0.7201783   0.2734837   0.9168466  )
       222           N   tau( 222) = (   0.7899402   0.0136041   1.2540032  )
       223           N   tau( 223) = (   0.8000682   0.1757374   1.2501226  )
       224           N   tau( 224) = (   0.6666690   0.1924500   1.0497374  )
       225           O   tau( 225) = (   0.3295019   0.5826443   1.0861057  )
       226           Li  tau( 226) = (   0.9291603   0.0940691   1.3673627  )
       227           Li  tau( 227) = (   0.7878071   0.1945761   1.3708108  )
       228           Li  tau( 228) = (   0.7901214   0.0333567   1.3764563  )
       229           Li  tau( 229) = (   0.5725496   0.1942570   1.7803475  )
       230           Li  tau( 230) = (   0.6918691   0.0934403   1.7906742  )
       231           Li  tau( 231) = (   0.7242166   0.2638524   1.7865833  )
       232           Li  tau( 232) = (   0.7245322   0.0836220   1.5520856  )
       233           Li  tau( 233) = (   0.8962517   0.0205713   1.5399647  )
       234           Li  tau( 234) = (   0.8892679   0.1769565   1.5157874  )
       235           Li  tau( 235) = (   0.7701811   0.2082509   1.6277560  )
       236           Li  tau( 236) = (   0.6076778   0.2745233   1.6092300  )
       237           Li  tau( 237) = (   0.6093492   0.0963951   1.6281359  )
       238           Li  tau( 238) = (   0.2038052   0.5951245   1.5370719  )
       239           Li  tau( 239) = (   0.4621098   0.5573080   1.6358794  )
       240           Cr  tau( 240) = (   0.8125689   0.0903820   1.7162252  )
       241           Cr  tau( 241) = (   0.6638404   0.1941565   1.4384104  )
       242           N   tau( 242) = (   0.9129076   0.0920318   1.7474448  )
       243           N   tau( 243) = (   0.8286346   0.0958931   1.6128709  )
       244           N   tau( 244) = (   0.5691232   0.1969366   1.4051570  )
       245           N   tau( 245) = (   0.7035516   0.1112627   1.4004408  )
       246           N   tau( 246) = (   0.7209906   0.2797860   1.4194987  )
       247           N   tau( 247) = (   0.7776967   0.0089754   1.7570936  )
       248           N   tau( 248) = (   0.7701168   0.1685701   1.7533533  )
       249           N   tau( 249) = (   0.6665521   0.1880867   1.5455342  )
       250           O   tau( 250) = (   0.3246553   0.5732644   1.5778292  )
       251           Li  tau( 251) = (   0.7593284   0.3759836   0.8766270  )
       252           Li  tau( 252) = (   0.6280565   0.4696050   0.8766270  )
       253           Li  tau( 253) = (   0.6126161   0.3091127   0.8766270  )
       254           Li  tau( 254) = (   0.4093702   0.4951335   1.2860059  )
       255           Li  tau( 255) = (   0.5432615   0.4050063   1.2768013  )
       256           Li  tau( 256) = (   0.5619278   0.5630113   1.2935917  )
       257           Li  tau( 257) = (   0.5669941   0.3791318   1.0336250  )
       258           Li  tau( 258) = (   0.7214991   0.3014656   1.0336250  )
       259           Li  tau( 259) = (   0.7115055   0.4741032   1.0336250  )
       260           Li  tau( 260) = (   0.6013895   0.4865280   1.1146779  )
       261           Li  tau( 261) = (   0.4365357   0.5733503   1.1277397  )
       262           Li  tau( 262) = (   0.4561061   0.3938960   1.1174948  )
       263           Li  tau( 263) = (   0.5000000   0.2886750   0.9626942  )
       264           Li  tau( 264) = (   0.5230664   0.3088941   1.1922244  )
       265           Cr  tau( 265) = (   0.6611345   0.3830620   1.1973731  )
       266           Cr  tau( 266) = (   0.5000000   0.4811250   0.9478909  )
       267           N   tau( 267) = (   0.7570550   0.3768672   1.2256355  )
       268           N   tau( 268) = (   0.6493819   0.3806081   1.0994188  )
       269           N   tau( 269) = (   0.4030661   0.4869528   0.9168466  )
       270           N   tau( 270) = (   0.5434199   0.3942641   0.9168466  )
       271           N   tau( 271) = (   0.5535140   0.5621587   0.9168466  )
       272           N   tau( 272) = (   0.6117980   0.3094353   1.2405616  )
       273           N   tau( 273) = (   0.6213941   0.4700129   1.2377388  )
       274           N   tau( 274) = (   0.5000000   0.4811250   1.0497374  )
       275           O   tau( 275) = (   0.4990310   0.2849622   1.0711680  )
       276           Li  tau( 276) = (   0.7807298   0.3827160   1.3716465  )
       277           Li  tau( 277) = (   0.6308325   0.4536685   1.3868998  )
       278           Li  tau( 278) = (   0.6068421   0.3117519   1.3761465  )
       279           Li  tau( 279) = (   0.3379970   0.5663612   1.6815575  )
       280           Li  tau( 280) = (   0.5268633   0.3864499   1.7923106  )
       281           Li  tau( 281) = (   0.5637997   0.5543818   1.7763501  )
       282           Li  tau( 282) = (   0.5524147   0.3744302   1.5400349  )
       283           Li  tau( 283) = (   0.7105938   0.2897030   1.5443596  )
       284           Li  tau( 284) = (   0.7020905   0.4954392   1.5408589  )
       285           Li  tau( 285) = (   0.6070291   0.4724926   1.6093118  )
       286           Li  tau( 286) = (   0.3958386   0.4869546   1.7573507  )
       287           Li  tau( 287) = (   0.4519836   0.4006314   1.6208833  )
       288           Li  tau( 288) = (   0.4840565   0.2977931   1.4574858  )
       289           Li  tau( 289) = (   0.4904219   0.2814411   1.6998381  )
       290           Cr  tau( 290) = (   0.6646293   0.3835541   1.6986518  )
       291           Cr  tau( 291) = (   0.4999392   0.4887967   1.4494852  )
       292           N   tau( 292) = (   0.7637116   0.3980231   1.7303623  )
       293           N   tau( 293) = (   0.6672300   0.3734951   1.6018254  )
       294           N   tau( 294) = (   0.4069408   0.4844784   1.4146363  )
       295           N   tau( 295) = (   0.5319893   0.3936832   1.4124798  )
       296           N   tau( 296) = (   0.5592582   0.5572151   1.4138064  )
       297           N   tau( 297) = (   0.6129200   0.3063636   1.7479416  )
       298           N   tau( 298) = (   0.6238720   0.4729473   1.7208596  )
       299           N   tau( 299) = (   0.4947858   0.4943603   1.5534414  )
       300           O   tau( 300) = (   0.4974770   0.3010144   1.5853857  )

   Crystallographic axes

     site n.     atom                  positions (cryst. coord.)
         1           Li  tau(   1) = (  0.3097346  0.1512218  0.3321863  )
         2           Li  tau(   2) = (  0.2325188  0.3133799  0.3321863  )
         3           Li  tau(   3) = (  0.1244139  0.0353984  0.3321863  )
         4           Li  tau(   4) = (  0.0316179  0.3557746  0.4876162  )
         5           Li  tau(   5) = (  0.1054613  0.1992304  0.4802129  )
         6           Li  tau(   6) = (  0.1992152  0.4616986  0.4859176  )
         7           Li  tau(   7) = (  0.1192194  0.1566758  0.3916786  )
         8           Li  tau(   8) = (  0.2288830  0.0221536  0.3916786  )
         9           Li  tau(   9) = (  0.3185643  0.3211711  0.3916786  )
        10           Li  tau(  10) = (  0.2096743  0.3244741  0.4229728  )
        11           Li  tau(  11) = (  0.0997432  0.4865947  0.4224169  )
        12           Li  tau(  12) = (  0.0259572  0.1952594  0.4322762  )
        13           Li  tau(  13) = (  0.0000000  0.0000000  0.3648003  )
        14           Li  tau(  14) = (  0.0085846 -0.0051821  0.4500039  )
        15           Cr  tau(  15) = (  0.2274447  0.1606691  0.4548914  )
        16           Cr  tau(  16) = (  0.1111111  0.3333332  0.3591908  )
        17           N   tau(  17) = (  0.3174945  0.1486446  0.4685332  )
        18           N   tau(  18) = (  0.2373916  0.1794978  0.4168473  )
        19           N   tau(  19) = (  0.0175419  0.3434273  0.3474270  )
        20           N   tau(  20) = (  0.1043816  0.1828847  0.3474270  )
        21           N   tau(  21) = (  0.2114100  0.4736876  0.3474270  )
        22           N   tau(  22) = (  0.1247135  0.0393460  0.4711420  )
        23           N   tau(  23) = (  0.2427722  0.3169804  0.4676075  )
        24           N   tau(  24) = (  0.1111111  0.3333332  0.3977842  )
        25           O   tau(  25) = (  1.0136576  1.0015878  0.4052495  )
        26           Li  tau(  26) = (  0.3134013  0.1467690  0.5197209  )
        27           Li  tau(  27) = (  0.2293484  0.3164237  0.5104020  )
        28           Li  tau(  28) = (  0.0994214  0.0234117  0.5188262  )
        29           Li  tau(  29) = (  1.0161027  0.3721587  0.6724823  )
        30           Li  tau(  30) = (  0.0777995  0.1817773  0.6704826  )
        31           Li  tau(  31) = (  0.2175436  0.4807520  0.6712643  )
        32           Li  tau(  32) = (  0.1070784  0.1575888  0.5839591  )
        33           Li  tau(  33) = (  0.2286356  0.0240096  0.5804977  )
        34           Li  tau(  34) = (  0.3094391  0.2984432  0.5790959  )
        35           Li  tau(  35) = (  0.2214561  0.3922912  0.6112781  )
        36           Li  tau(  36) = (  0.0884671  0.4690120  0.6166086  )
        37           Li  tau(  37) = ( -0.0112176  0.1540804  0.6174391  )
        38           Li  tau(  38) = (  0.0013272  0.0060239  0.5524457  )
        39           Li  tau(  39) = ( -0.0144796 -0.0081017  0.6377312  )
        40           Cr  tau(  40) = (  0.2150735  0.1664803  0.6446008  )
        41           Cr  tau(  41) = (  0.1175323  0.3353961  0.5430072  )
        42           N   tau(  42) = (  0.3008026  0.1403594  0.6544778  )
        43           N   tau(  43) = (  0.2160768  0.1624405  0.6039279  )
        44           N   tau(  44) = (  0.0095586  0.3347169  0.5312677  )
        45           N   tau(  45) = (  0.1067308  0.1901395  0.5298903  )
        46           N   tau(  46) = (  0.2142079  0.4647333  0.5295359  )
        47           N   tau(  47) = (  0.1186909  0.0331566  0.6591550  )
        48           N   tau(  48) = (  0.2345527  0.3256513  0.6580632  )
        49           N   tau(  49) = (  0.1139573  0.3310506  0.5816847  )
        50           O   tau(  50) = ( -0.0014961  0.0134885  0.5968147  )
        51           Li  tau(  51) = (  0.3097348  0.6512226  0.3321863  )
        52           Li  tau(  52) = (  0.2325186  0.8133797  0.3321863  )
        53           Li  tau(  53) = (  0.1244139  0.5353989  0.3321863  )
        54           Li  tau(  54) = (  0.0239149  0.8499175  0.4845756  )
        55           Li  tau(  55) = (  0.1000214  0.6963433  0.4807200  )
        56           Li  tau(  56) = (  0.2080020  0.9662271  0.4830453  )
        57           Li  tau(  57) = (  0.1192194  0.6566756  0.3916786  )
        58           Li  tau(  58) = (  0.2288831  0.5221537  0.3916786  )
        59           Li  tau(  59) = (  0.3185642  0.8211709  0.3916786  )
        60           Li  tau(  60) = (  0.2098076  0.8223876  0.4272203  )
        61           Li  tau(  61) = (  0.1065500  0.9812964  0.4247710  )
        62           Li  tau(  62) = (  0.0190267  0.6549871  0.4242949  )
        63           Li  tau(  63) = ( -0.0000001  0.4999998  0.3648003  )
        64           Li  tau(  64) = ( -0.0040724  0.4717967  0.4567362  )
        65           Cr  tau(  65) = (  0.2233753  0.6617317  0.4576331  )
        66           Cr  tau(  66) = (  0.1111110  0.8333330  0.3591908  )
        67           N   tau(  67) = (  0.3243814  0.6856247  0.4672178  )
        68           N   tau(  68) = (  0.2199685  0.6745639  0.4185348  )
        69           N   tau(  69) = (  0.0175418  0.8434271  0.3474270  )
        70           N   tau(  70) = (  0.1043818  0.6828855  0.3474270  )
        71           N   tau(  71) = (  0.2114098  0.9736874  0.3474270  )
        72           N   tau(  72) = (  0.1216596  0.5245031  0.4707057  )
        73           N   tau(  73) = (  0.2230892  0.8100352  0.4696117  )
        74           N   tau(  74) = (  0.1111110  0.8333330  0.3977842  )
        75           O   tau(  75) = ( -0.0037495  0.4927137  0.4066934  )
        76           Li  tau(  76) = (  0.3151427  0.6592497  0.5157148  )
        77           Li  tau(  77) = (  0.2288371  0.8316243  0.5197409  )
        78           Li  tau(  78) = (  0.1235614  0.5382514  0.5236784  )
        79           Li  tau(  79) = (  0.0159287  0.8705197  0.6742230  )
        80           Li  tau(  80) = (  0.0977270  0.6894357  0.6714990  )
        81           Li  tau(  81) = (  0.2119171  0.9881169  0.6731467  )
        82           Li  tau(  82) = (  0.1169551  0.6528493  0.5808676  )
        83           Li  tau(  83) = (  0.2214696  0.5308721  0.5717944  )
        84           Li  tau(  84) = (  0.3190355  0.8324058  0.5865967  )
        85           Li  tau(  85) = (  0.2085186  0.8596310  0.6133864  )
        86           Li  tau(  86) = (  0.1023658  0.9818511  0.6145357  )
        87           Li  tau(  87) = (  0.0038176  0.6700118  0.5997114  )
        88           Li  tau(  88) = ( -0.0129205  0.4857383  0.5518278  )
        89           Li  tau(  89) = (  0.0080287  0.5560375  0.6328038  )
        90           Cr  tau(  90) = (  0.2162771  0.6646480  0.6467667  )
        91           Cr  tau(  91) = (  0.1100118  0.8483445  0.5482557  )
        92           N   tau(  92) = (  0.3175395  0.6639313  0.6634380  )
        93           N   tau(  93) = (  0.2251905  0.6620273  0.6096172  )
        94           N   tau(  94) = (  0.0210074  0.8482291  0.5333051  )
        95           N   tau(  95) = (  0.1101687  0.7010897  0.5371895  )
        96           N   tau(  96) = (  0.2003947  0.9892475  0.5290775  )
        97           N   tau(  97) = (  0.1148879  0.5260255  0.6572305  )
        98           N   tau(  98) = (  0.2238195  0.8171270  0.6628622  )
        99           N   tau(  99) = (  0.1037015  0.8389550  0.5883107  )
       100           O   tau( 100) = (  1.0027722  0.5060550  0.5934065  )
       101           Li  tau( 101) = (  0.6430655  0.1512218  0.3321863  )
       102           Li  tau( 102) = (  0.5658521  0.3133799  0.3321863  )
       103           Li  tau( 103) = (  0.4577472  0.0353984  0.3321863  )
       104           Li  tau( 104) = (  0.3721803  0.3455773  0.4806558  )
       105           Li  tau( 105) = (  0.4348089  0.1846268  0.4871401  )
       106           Li  tau( 106) = (  0.5698624  0.4887386  0.4887877  )
       107           Li  tau( 107) = (  0.4525527  0.1566758  0.3916786  )
       108           Li  tau( 108) = (  0.5622164  0.0221536  0.3916786  )
       109           Li  tau( 109) = (  0.6518976  0.3211711  0.3916786  )
       110           Li  tau( 110) = (  0.5533628  0.3563809  0.4307902  )
       111           Li  tau( 111) = (  0.4502272  0.4953040  0.4271539  )
       112           Li  tau( 112) = (  0.3516529  0.1852362  0.4236394  )
       113           Li  tau( 113) = (  0.3333333  0.0000000  0.3648003  )
       114           Li  tau( 114) = (  0.3329553  1.0078900  0.4494148  )
       115           Cr  tau( 115) = (  0.5622122  0.1803319  0.4550354  )
       116           Cr  tau( 116) = (  0.4444444  0.3333332  0.3591908  )
       117           N   tau( 117) = (  0.6531073  0.1622542  0.4693836  )
       118           N   tau( 118) = (  0.5586813  0.1783600  0.4143847  )
       119           N   tau( 119) = (  0.3508752  0.3434273  0.3474270  )
       120           N   tau( 120) = (  0.4377148  0.1828847  0.3474270  )
       121           N   tau( 121) = (  0.5447432  0.4736876  0.3474270  )
       122           N   tau( 122) = (  0.4625218  0.0291987  0.4702960  )
       123           N   tau( 123) = (  0.5654695  0.3224658  0.4681102  )
       124           N   tau( 124) = (  0.4444444  0.3333332  0.3977842  )
       125           O   tau( 125) = (  0.3339573  1.0028875  0.4100995  )
       126           Li  tau( 126) = (  0.6801091  1.0247428  0.5493807  )
       127           Li  tau( 127) = (  0.5677064  0.3183186  0.5220883  )
       128           Li  tau( 128) = (  0.6285610  0.1204719  0.5177522  )
       129           Li  tau( 129) = (  0.3432016  0.3346096  0.6721590  )
       130           Li  tau( 130) = (  0.4351444  0.1800231  0.6724491  )
       131           Li  tau( 131) = (  0.5327892  0.4411025  0.6750490  )
       132           Li  tau( 132) = (  0.4501177  0.1590292  0.5789099  )
       133           Li  tau( 133) = (  0.3563041  0.8496645  0.6716186  )
       134           Li  tau( 134) = (  0.6581140  0.2984382  0.5770474  )
       135           Li  tau( 135) = (  0.5515825  0.3543362  0.6192506  )
       136           Li  tau( 136) = (  0.4345176  0.4781961  0.6113534  )
       137           Li  tau( 137) = (  0.3375292  0.1881707  0.6161192  )
       138           Li  tau( 138) = (  0.4633355  0.0449680  0.5262783  )
       139           Li  tau( 139) = (  0.4264856  0.9954526  0.6107400  )
       140           Cr  tau( 140) = (  0.5514237  0.1668701  0.6481552  )
       141           Cr  tau( 141) = (  0.4372080  0.3300525  0.5462471  )
       142           N   tau( 142) = (  0.6391329  0.1470332  0.6611991  )
       143           N   tau( 143) = (  0.5617926  0.1659044  0.6065721  )
       144           N   tau( 144) = (  0.3551658  0.3455833  0.5282448  )
       145           N   tau( 145) = (  0.4550184  0.1971725  0.5366735  )
       146           N   tau( 146) = (  0.5423223  0.4915334  0.5355529  )
       147           N   tau( 147) = (  0.4623769  0.0320180  0.6589446  )
       148           N   tau( 148) = (  0.5581695  0.3105244  0.6645453  )
       149           N   tau( 149) = (  0.4314493  0.3349042  0.5843599  )
       150           O   tau( 150) = (  0.3300365  0.0023367  0.5961193  )
       151           Li  tau( 151) = (  0.6430682  0.6512226  0.3321863  )
       152           Li  tau( 152) = (  0.5658520  0.8133797  0.3321863  )
       153           Li  tau( 153) = (  0.4577474  0.5353989  0.3321863  )
       154           Li  tau( 154) = (  0.3604560  0.8602232  0.4837917  )
       155           Li  tau( 155) = (  0.4380935  0.6794500  0.4798696  )
       156           Li  tau( 156) = (  0.5445608  0.9548506  0.4872464  )
       157           Li  tau( 157) = (  0.4525527  0.6566756  0.3916786  )
       158           Li  tau( 158) = (  0.5622164  0.5221537  0.3916786  )
       159           Li  tau( 159) = (  0.6518976  0.8211709  0.3916786  )
       160           Li  tau( 160) = (  0.5661798  0.8573616  0.4258096  )
       161           Li  tau( 161) = (  0.4547228  0.9608218  0.4282545  )
       162           Li  tau( 162) = (  0.3537110  0.6669822  0.4237900  )
       163           Li  tau( 163) = (  0.3333333  0.4999998  0.3648003  )
       164           Li  tau( 164) = (  0.3200596  0.4835357  0.4506373  )
       165           Cr  tau( 165) = (  0.5631309  0.6659902  0.4580494  )
       166           Cr  tau( 166) = (  0.4444443  0.8333330  0.3591908  )
       167           N   tau( 167) = (  0.6488844  0.6439942  0.4692840  )
       168           N   tau( 168) = (  0.5521465  0.6711213  0.4170909  )
       169           N   tau( 169) = (  0.3508751  0.8434271  0.3474270  )
       170           N   tau( 170) = (  0.4377151  0.6828855  0.3474270  )
       171           N   tau( 171) = (  0.5447431  0.9736874  0.3474270  )
       172           N   tau( 172) = (  0.4601123  0.5332944  0.4722271  )
       173           N   tau( 173) = (  0.5609484  0.8081747  0.4735470  )
       174           N   tau( 174) = (  0.4444443  0.8333330  0.3977842  )
       175           O   tau( 175) = (  0.3269883  0.4848222  0.4053270  )
       176           Li  tau( 176) = (  0.6503387  0.6648990  0.5184874  )
       177           Li  tau( 177) = (  0.5738685  0.8114422  0.5193599  )
       178           Li  tau( 178) = (  0.4722818  0.5602616  0.5232642  )
       179           Li  tau( 179) = (  0.3283809 -0.0064204  0.6378508  )
       180           Li  tau( 180) = (  0.4386967  0.6916303  0.6748807  )
       181           Li  tau( 181) = (  0.5553777  0.9742239  0.6719619  )
       182           Li  tau( 182) = (  0.4573798  0.6635426  0.5841673  )
       183           Li  tau( 183) = (  0.5533693  0.5212589  0.5826658  )
       184           Li  tau( 184) = (  0.6379965  0.8247927  0.5754839  )
       185           Li  tau( 185) = (  0.5432350  0.8561519  0.6202073  )
       186           Li  tau( 186) = (  0.3246093 -0.0166746  0.5525166  )
       187           Li  tau( 187) = (  0.3406077  0.6703186  0.6131893  )
       188           Li  tau( 188) = (  0.3466392  0.4909686  0.5505987  )
       189           Li  tau( 189) = (  0.3313202  0.4884906  0.6407475  )
       190           Cr  tau( 190) = (  0.5437668  0.6377365  0.6472539  )
       191           Cr  tau( 191) = (  0.4418851  0.8286412  0.5498834  )
       192           N   tau( 192) = (  0.6408176  0.6419181  0.6606366  )
       193           N   tau( 193) = (  0.5540219  0.6592709  0.6108551  )
       194           N   tau( 194) = (  0.3585729  0.8542722  0.5346228  )
       195           N   tau( 195) = (  0.4315287  0.6804703  0.5359870  )
       196           N   tau( 196) = (  0.5442669  0.9573194  0.5390896  )
       197           N   tau( 197) = (  0.4432323  0.5030851  0.6580256  )
       198           N   tau( 198) = (  0.5593493  0.8011457  0.6589867  )
       199           N   tau( 199) = (  0.4380855  0.8300675  0.5912628  )
       200           O   tau( 200) = (  0.3431454  0.5159153  0.6010290  )
       201           Li  tau( 201) = (  0.9764000  0.1512218  0.3321863  )
       202           Li  tau( 202) = (  0.8991866  0.3133799  0.3321863  )
       203           Li  tau( 203) = (  0.7910799  0.0353984  0.3321863  )
       204           Li  tau( 204) = (  0.6870512  0.3592648  0.4873616  )
       205           Li  tau( 205) = (  0.7737582  0.2073061  0.4876118  )
       206           Li  tau( 206) = (  0.8709444  0.4843829  0.4885397  )
       207           Li  tau( 207) = (  0.7858861  0.1566758  0.3916786  )
       208           Li  tau( 208) = (  0.8955479  0.0221536  0.3916786  )
       209           Li  tau( 209) = (  0.9852327  0.3211711  0.3916786  )
       210           Li  tau( 210) = (  0.8685344  0.3327198  0.4252006  )
       211           Li  tau( 211) = (  0.7817047  0.4712187  0.4211900  )
       212           Li  tau( 212) = (  0.6560726  0.1427473  0.4266844  )
       213           Li  tau( 213) = (  0.6666690  0.0000000  0.3648003  )
       214           Li  tau( 214) = (  0.6734948  0.0127105  0.4590792  )
       215           Cr  tau( 215) = (  0.8920633  0.1619536  0.4594180  )
       216           Cr  tau( 216) = (  0.7777800  0.3333332  0.3591908  )
       217           N   tau( 217) = ( -0.0219495  0.1372255  0.4724198  )
       218           N   tau( 218) = (  0.8880805  0.1539852  0.4192899  )
       219           N   tau( 219) = (  0.6842085  0.3434273  0.3474270  )
       220           N   tau( 220) = (  0.7710469  0.1828847  0.3474270  )
       221           N   tau( 221) = (  0.8780741  0.4736876  0.3474270  )
       222           N   tau( 222) = (  0.7977946  0.0235631  0.4751880  )
       223           N   tau( 223) = (  0.9015302  0.3043861  0.4737176  )
       224           N   tau( 224) = (  0.7777800  0.3333332  0.3977842  )
       225           O   tau( 225) = (  0.6658917  1.0091695  0.4115655  )
       226           Li  tau( 226) = (  0.9834711  0.1629324  0.5181441  )
       227           Li  tau( 227) = (  0.9001457  0.3370157  0.5194507  )
       228           Li  tau( 228) = (  0.8093799  0.0577755  0.5215900  )
       229           Li  tau( 229) = (  0.6847040  0.3364630  0.6746393  )
       230           Li  tau( 230) = (  0.7458168  0.1618433  0.6785525  )
       231           Li  tau( 231) = (  0.8765519  0.4570058  0.6770023  )
       232           Li  tau( 232) = (  0.7728114  0.1448376  0.5881424  )
       233           Li  tau( 233) = (  0.9081286  0.0356305  0.5835494  )
       234           Li  tau( 234) = (  0.9914338  0.3064977  0.5743877  )
       235           Li  tau( 235) = (  0.8904148  0.3607012  0.6168168  )
       236           Li  tau( 236) = (  0.7661739  0.4754884  0.6097966  )
       237           Li  tau( 237) = (  0.6650030  0.1669612  0.6169607  )
       238           Li  tau( 238) = (  0.5474005  1.0307859  0.5824532  )
       239           Li  tau( 239) = (  0.7838717  0.9652858  0.6198950  )
       240           Cr  tau( 240) = (  0.8647510  0.1565462  0.6503410  )
       241           Cr  tau( 241) = (  0.7759367  0.3362889  0.5450667  )
       242           N   tau( 242) = (  0.9660422  0.1594038  0.6621713  )
       243           N   tau( 243) = (  0.8839984  0.1660916  0.6111762  )
       244           N   tau( 244) = (  0.6828246  0.3411042  0.5324658  )
       245           N   tau( 245) = (  0.7677891  0.1927126  0.5306786  )
       246           N   tau( 246) = (  0.8825251  0.4846036  0.5379004  )
       247           N   tau( 247) = (  0.7828787  0.0155459  0.6658275  )
       248           N   tau( 248) = (  0.8674408  0.2919720  0.6644102  )
       249           N   tau( 249) = (  0.7751440  0.3257758  0.5856599  )
       250           O   tau( 250) = (  0.6556296  0.9929230  0.5978976  )
       251           Li  tau( 251) = (  0.9764026  0.6512226  0.3321863  )
       252           Li  tau( 252) = (  0.8991830  0.8133797  0.3321863  )
       253           Li  tau( 253) = (  0.7910824  0.5353989  0.3321863  )
       254           Li  tau( 254) = (  0.6952357  0.8575964  0.4873150  )
       255           Li  tau( 255) = (  0.7770920  0.7014915  0.4838271  )
       256           Li  tau( 256) = (  0.8869826  0.9751642  0.4901896  )
       257           Li  tau( 257) = (  0.7858860  0.6566756  0.3916786  )
       258           Li  tau( 258) = (  0.8955503  0.5221537  0.3916786  )
       259           Li  tau( 259) = (  0.9852291  0.8211709  0.3916786  )
       260           Li  tau( 260) = (  0.8822865  0.8426912  0.4223926  )
       261           Li  tau( 261) = (  0.7675596  0.9930718  0.4273421  )
       262           Li  tau( 262) = (  0.6835220  0.6822478  0.4234600  )
       263           Li  tau( 263) = (  0.6666666  0.4999998  0.3648003  )
       264           Li  tau( 264) = (  0.7014065  0.5350203  0.4517778  )
       265           Cr  tau( 265) = (  0.8822955  0.6634829  0.4537288  )
       266           Cr  tau( 266) = (  0.7777776  0.8333330  0.3591908  )
       267           N   tau( 267) = (  0.9746394  0.6527531  0.4644385  )
       268           N   tau( 268) = (  0.8691260  0.6592325  0.4166103  )
       269           N   tau( 269) = (  0.6842084  0.8434271  0.3474270  )
       270           N   tau( 270) = (  0.7710484  0.6828855  0.3474270  )
       271           N   tau( 271) = (  0.8780764  0.9736874  0.3474270  )
       272           N   tau( 272) = (  0.7904505  0.5359576  0.4700945  )
       273           N   tau( 273) = (  0.8927562  0.8140862  0.4690249  )
       274           N   tau( 274) = (  0.7777776  0.8333330  0.3977842  )
       275           O   tau( 275) = (  0.6635540  0.4935690  0.4059050  )
       276           Li  tau( 276) = (  1.0016910  0.6628836  0.5197674  )
       277           Li  tau( 277) = (  0.8927581  0.7857769  0.5255475  )
       278           Li  tau( 278) = (  0.7868322  0.5399702  0.5214727  )
       279           Li  tau( 279) = (  0.6649858  0.9809664  0.6372041  )
       280           Li  tau( 280) = (  0.7499803  0.6693508  0.6791725  )
       281           Li  tau( 281) = (  0.8838722  0.9602175  0.6731245  )
       282           Li  tau( 282) = (  0.7685920  0.6485321  0.5835760  )
       283           Li  tau( 283) = (  0.8778539  0.5017803  0.5852148  )
       284           Li  tau( 284) = (  0.9881325  0.8581258  0.5838882  )
       285           Li  tau( 285) = (  0.8798228  0.8183812  0.6098276  )
       286           Li  tau( 286) = (  0.6769819  0.8434301  0.6659250  )
       287           Li  tau( 287) = (  0.6832882  0.6939139  0.6142124  )
       288           Li  tau( 288) = (  0.6559874  0.5157928  0.5522951  )
       289           Li  tau( 289) = (  0.6529120  0.4874703  0.6441313  )
       290           Cr  tau( 290) = (  0.8860744  0.6643352  0.6436818  )
       291           Cr  tau( 291) = (  0.7821461  0.8466207  0.5492634  )
       292           N   tau( 292) = (  0.9935103  0.6893963  0.6556981  )
       293           N   tau( 293) = (  0.8828675  0.6469125  0.6069907  )
       294           N   tau( 294) = (  0.6866545  0.8391412  0.5360578  )
       295           N   tau( 295) = (  0.7592824  0.6818794  0.5352407  )
       296           N   tau( 296) = (  0.8809665  0.9651248  0.5357434  )
       297           N   tau( 297) = (  0.7897991  0.5306373  0.6623595  )
       298           N   tau( 298) = (  0.8969283  0.8191687  0.6520972  )
       299           N   tau( 299) = (  0.7802049  0.8562572  0.5886562  )
       300           O   tau( 300) = (  0.6712678  0.5213723  0.6007611  )

     number of k points=     1  Gaussian smearing, width (Ry)=  0.0147
                       cart. coord. in units 2pi/alat
        k(    1) = (   0.0000000   0.0000000   0.0000000), wk =   2.0000000

                       cryst. coord.
        k(    1) = (   0.0000000   0.0000000   0.0000000), wk =   2.0000000

     Dense  grid:  5457965 G-vectors     FFT dimensions: ( 240, 160, 640)

     Smooth grid:  2970742 G-vectors     FFT dimensions: ( 200, 135, 540)

     Dynamical RAM for                 wfc:    1182.84 MB

     Dynamical RAM for     wfc (w. buffer):    1182.84 MB

     Dynamical RAM for           str. fact:      83.28 MB

     Dynamical RAM for           local pot:       0.00 MB

     Dynamical RAM for          nlocal pot:    3977.76 MB

     Dynamical RAM for                qrad:       7.46 MB

     Dynamical RAM for          rho,v,vnew:     203.09 MB

     Dynamical RAM for               rhoin:      67.70 MB

     Dynamical RAM for            rho*nmix:     333.13 MB

     Dynamical RAM for           G-vectors:      83.74 MB

     Dynamical RAM for          h,s,v(r/c):      63.83 MB

     Dynamical RAM for          <psi|beta>:      17.89 MB

     Dynamical RAM for                 psi:    2365.69 MB

     Dynamical RAM for                hpsi:    2365.69 MB

     Dynamical RAM for                spsi:    2365.69 MB

     Dynamical RAM for      wfcinit/wfcrot:    4336.08 MB

     Dynamical RAM for           addusdens:    7370.47 MB

     Dynamical RAM for          addusforce:   14335.60 MB

     Dynamical RAM for         addusstress:    4184.93 MB

     Estimated static dynamical RAM per process >       5.81 GB

     Estimated max dynamical RAM per process >      20.13 GB

     Estimated total dynamical RAM >      80.52 GB

     Check: negative core charge=   -0.000002

     Initial potential from superposition of free atoms

     starting charge    1292.2742, renormalised to    1392.0000

     negative rho (up, down):  2.606E-02 0.000E+00
     Starting wfcs are 1512 randomized atomic wfcs
     Checking if some PAW data can be deallocated... 

     total cpu time spent up to now is       34.9 secs

     per-process dynamical memory:  1708.5 Mb

     Self-consistent Calculation
[tb_dev] Currently allocated     1.26E+02 Mbytes, locked:    0 /  11
[tb_pin] Currently allocated     0.00E+00 Mbytes, locked:    0 /   0

     iteration #  1     ecut=    90.00 Ry     beta= 0.20
     Davidson diagonalization with overlap

---- Real-time Memory Report at c_bands before calling an iterative solver
         10171 MiB given to the printing process from OS
          1746 MiB allocation reported by mallinfo(arena+hblkhd)
        465816 MiB available memory on the node where the printing process lives
     GPU memory used/free/total (MiB): 16367 / 48601 / 64969
------------------
     ethr =  1.00E-02,  avg # of iterations =  3.0

     negative rho (up, down):  4.097E-02 0.000E+00

     total cpu time spent up to now is       38.6 secs

     total energy              =   -9072.13003374 Ry
     estimated scf accuracy    <     234.64532020 Ry
[tb_dev] Currently allocated     2.41E+01 Mbytes, locked:    0 /   6
[tb_pin] Currently allocated     0.00E+00 Mbytes, locked:    0 /   0

     iteration #  2     ecut=    90.00 Ry     beta= 0.20
     Davidson diagonalization with overlap

---- Real-time Memory Report at c_bands before calling an iterative solver
         10502 MiB given to the printing process from OS
          2013 MiB allocation reported by mallinfo(arena+hblkhd)
        464852 MiB available memory on the node where the printing process lives
     GPU memory used/free/total (MiB): 31251 / 33717 / 64969
------------------
     ethr =  1.00E-02,  avg # of iterations =  4.0

     negative rho (up, down):  6.772E-02 0.000E+00

     total cpu time spent up to now is       42.3 secs

     total energy              =   -9064.63578088 Ry
     estimated scf accuracy    <      50.34270541 Ry
[tb_dev] Currently allocated     2.41E+01 Mbytes, locked:    0 /   6
[tb_pin] Currently allocated     0.00E+00 Mbytes, locked:    0 /   0

     iteration #  3     ecut=    90.00 Ry     beta= 0.20
     Davidson diagonalization with overlap

---- Real-time Memory Report at c_bands before calling an iterative solver
         10537 MiB given to the printing process from OS
         -2047 MiB allocation reported by mallinfo(arena+hblkhd)
        464712 MiB available memory on the node where the printing process lives
     GPU memory used/free/total (MiB): 31251 / 33717 / 64969
------------------
     ethr =  3.62E-03,  avg # of iterations =  7.0

     negative rho (up, down):  5.586E-02 0.000E+00

     total cpu time spent up to now is       47.9 secs

     total energy              =   -9116.57129780 Ry
     estimated scf accuracy    <     649.23320645 Ry
[tb_dev] Currently allocated     2.41E+01 Mbytes, locked:    0 /   6
[tb_pin] Currently allocated     0.00E+00 Mbytes, locked:    0 /   0

     iteration #  4     ecut=    90.00 Ry     beta= 0.20
     Davidson diagonalization with overlap

---- Real-time Memory Report at c_bands before calling an iterative solver
         10541 MiB given to the printing process from OS
         -2024 MiB allocation reported by mallinfo(arena+hblkhd)
        464461 MiB available memory on the node where the printing process lives
     GPU memory used/free/total (MiB): 31251 / 33717 / 64969
------------------
     ethr =  3.62E-03,  avg # of iterations =  2.0

     negative rho (up, down):  4.411E-02 0.000E+00

     total cpu time spent up to now is       51.3 secs

     total energy              =   -9085.91622253 Ry
     estimated scf accuracy    <     813.95240761 Ry
[tb_dev] Currently allocated     2.41E+01 Mbytes, locked:    0 /   6
[tb_pin] Currently allocated     0.00E+00 Mbytes, locked:    0 /   0

     iteration #  5     ecut=    90.00 Ry     beta= 0.20
     Davidson diagonalization with overlap

---- Real-time Memory Report at c_bands before calling an iterative solver
         10564 MiB given to the printing process from OS
         -2000 MiB allocation reported by mallinfo(arena+hblkhd)
        464416 MiB available memory on the node where the printing process lives
     GPU memory used/free/total (MiB): 31251 / 33717 / 64969
------------------
     ethr =  3.62E-03,  avg # of iterations =  2.0

     negative rho (up, down):  3.567E-02 0.000E+00

     total cpu time spent up to now is       54.7 secs

     total energy              =   -9089.70988398 Ry
     estimated scf accuracy    <      54.96548440 Ry
[tb_dev] Currently allocated     2.41E+01 Mbytes, locked:    0 /   6
[tb_pin] Currently allocated     0.00E+00 Mbytes, locked:    0 /   0

     iteration #  6     ecut=    90.00 Ry     beta= 0.20
     Davidson diagonalization with overlap

---- Real-time Memory Report at c_bands before calling an iterative solver
         10588 MiB given to the printing process from OS
         -1977 MiB allocation reported by mallinfo(arena+hblkhd)
        464274 MiB available memory on the node where the printing process lives
     GPU memory used/free/total (MiB): 31251 / 33717 / 64969
------------------
     ethr =  3.62E-03,  avg # of iterations =  2.0

     negative rho (up, down):  2.541E-02 0.000E+00

     total cpu time spent up to now is       58.2 secs

     total energy              =   -9105.28381285 Ry
     estimated scf accuracy    <      11.75801766 Ry
[tb_dev] Currently allocated     2.41E+01 Mbytes, locked:    0 /   6
[tb_pin] Currently allocated     0.00E+00 Mbytes, locked:    0 /   0

     iteration #  7     ecut=    90.00 Ry     beta= 0.20
     Davidson diagonalization with overlap

---- Real-time Memory Report at c_bands before calling an iterative solver
         10611 MiB given to the printing process from OS
         -1953 MiB allocation reported by mallinfo(arena+hblkhd)
        464132 MiB available memory on the node where the printing process lives
     GPU memory used/free/total (MiB): 31251 / 33717 / 64969
------------------
     ethr =  8.45E-04,  avg # of iterations = 13.0

     negative rho (up, down):  3.231E-02 0.000E+00

     total cpu time spent up to now is       63.7 secs

     total energy              =   -9087.84830253 Ry
     estimated scf accuracy    <     111.69295954 Ry
[tb_dev] Currently allocated     2.41E+01 Mbytes, locked:    0 /   6
[tb_pin] Currently allocated     0.00E+00 Mbytes, locked:    0 /   0

     iteration #  8     ecut=    90.00 Ry     beta= 0.20
     Davidson diagonalization with overlap

---- Real-time Memory Report at c_bands before calling an iterative solver
         10635 MiB given to the printing process from OS
         -1930 MiB allocation reported by mallinfo(arena+hblkhd)
        464038 MiB available memory on the node where the printing process lives
     GPU memory used/free/total (MiB): 32299 / 32669 / 64969
------------------
     ethr =  8.45E-04,  avg # of iterations =  7.0

     negative rho (up, down):  3.338E-02 0.000E+00

     total cpu time spent up to now is       69.0 secs

     total energy              =   -9095.74397380 Ry
     estimated scf accuracy    <       5.14887503 Ry
[tb_dev] Currently allocated     2.41E+01 Mbytes, locked:    0 /   6
[tb_pin] Currently allocated     0.00E+00 Mbytes, locked:    0 /   0

     iteration #  9     ecut=    90.00 Ry     beta= 0.20
     Davidson diagonalization with overlap

---- Real-time Memory Report at c_bands before calling an iterative solver
         10658 MiB given to the printing process from OS
         -1906 MiB allocation reported by mallinfo(arena+hblkhd)
        463944 MiB available memory on the node where the printing process lives
     GPU memory used/free/total (MiB): 32525 / 32443 / 64969
------------------
     ethr =  3.70E-04,  avg # of iterations = 10.0

     negative rho (up, down):  3.515E-02 0.000E+00

     total cpu time spent up to now is       73.4 secs

     total energy              =   -9096.18519316 Ry
     estimated scf accuracy    <       0.93037159 Ry
[tb_dev] Currently allocated     2.41E+01 Mbytes, locked:    0 /   6
[tb_pin] Currently allocated     0.00E+00 Mbytes, locked:    0 /   0

     iteration # 10     ecut=    90.00 Ry     beta= 0.20
     Davidson diagonalization with overlap

---- Real-time Memory Report at c_bands before calling an iterative solver
         10682 MiB given to the printing process from OS
         -1883 MiB allocation reported by mallinfo(arena+hblkhd)
        463945 MiB available memory on the node where the printing process lives
     GPU memory used/free/total (MiB): 32525 / 32443 / 64969
------------------
     ethr =  6.68E-05,  avg # of iterations = 15.0

     negative rho (up, down):  3.338E-02 0.000E+00

     total cpu time spent up to now is       78.3 secs

     total energy              =   -9095.40491030 Ry
     estimated scf accuracy    <       5.80976980 Ry
[tb_dev] Currently allocated     2.41E+01 Mbytes, locked:    0 /   6
[tb_pin] Currently allocated     0.00E+00 Mbytes, locked:    0 /   0

     iteration # 11     ecut=    90.00 Ry     beta= 0.20
     Davidson diagonalization with overlap

---- Real-time Memory Report at c_bands before calling an iterative solver
         10682 MiB given to the printing process from OS
         -1883 MiB allocation reported by mallinfo(arena+hblkhd)
        463849 MiB available memory on the node where the printing process lives
     GPU memory used/free/total (MiB): 32525 / 32443 / 64969
------------------
     ethr =  6.68E-05,  avg # of iterations = 17.0

     negative rho (up, down):  3.441E-02 0.000E+00

     total cpu time spent up to now is       83.1 secs

     total energy              =   -9096.13811196 Ry
     estimated scf accuracy    <       1.11848784 Ry
[tb_dev] Currently allocated     2.41E+01 Mbytes, locked:    0 /   6
[tb_pin] Currently allocated     0.00E+00 Mbytes, locked:    0 /   0

     iteration # 12     ecut=    90.00 Ry     beta= 0.20
     Davidson diagonalization with overlap

---- Real-time Memory Report at c_bands before calling an iterative solver
         10682 MiB given to the printing process from OS
         -1883 MiB allocation reported by mallinfo(arena+hblkhd)
        463849 MiB available memory on the node where the printing process lives
     GPU memory used/free/total (MiB): 32547 / 32421 / 64969
------------------
     ethr =  6.68E-05,  avg # of iterations =  2.0

     negative rho (up, down):  3.628E-02 0.000E+00

     total cpu time spent up to now is       86.7 secs

     total energy              =   -9096.07780108 Ry
     estimated scf accuracy    <       0.45405858 Ry
[tb_dev] Currently allocated     2.41E+01 Mbytes, locked:    0 /   6
[tb_pin] Currently allocated     0.00E+00 Mbytes, locked:    0 /   0

     iteration # 13     ecut=    90.00 Ry     beta= 0.20
     Davidson diagonalization with overlap

---- Real-time Memory Report at c_bands before calling an iterative solver
         10682 MiB given to the printing process from OS
         -1883 MiB allocation reported by mallinfo(arena+hblkhd)
        464040 MiB available memory on the node where the printing process lives
     GPU memory used/free/total (MiB): 32547 / 32421 / 64969
------------------
     ethr =  3.26E-05,  avg # of iterations = 20.0

     negative rho (up, down):  3.817E-02 0.000E+00

     total cpu time spent up to now is       91.6 secs

     total energy              =   -9096.08845298 Ry
     estimated scf accuracy    <       0.12201776 Ry
[tb_dev] Currently allocated     2.41E+01 Mbytes, locked:    0 /   6
[tb_pin] Currently allocated     0.00E+00 Mbytes, locked:    0 /   0

     iteration # 14     ecut=    90.00 Ry     beta= 0.20
     Davidson diagonalization with overlap

---- Real-time Memory Report at c_bands before calling an iterative solver
         10682 MiB given to the printing process from OS
         -1883 MiB allocation reported by mallinfo(arena+hblkhd)
        463849 MiB available memory on the node where the printing process lives
     GPU memory used/free/total (MiB): 32547 / 32421 / 64969
------------------
     ethr =  8.77E-06,  avg # of iterations = 26.0

     negative rho (up, down):  3.796E-02 0.000E+00

     total cpu time spent up to now is       98.2 secs

     total energy              =   -9096.10026796 Ry
     estimated scf accuracy    <       0.05135759 Ry
[tb_dev] Currently allocated     2.41E+01 Mbytes, locked:    0 /   6
[tb_pin] Currently allocated     0.00E+00 Mbytes, locked:    0 /   0

     iteration # 15     ecut=    90.00 Ry     beta= 0.20
     Davidson diagonalization with overlap

---- Real-time Memory Report at c_bands before calling an iterative solver
         10682 MiB given to the printing process from OS
         -1883 MiB allocation reported by mallinfo(arena+hblkhd)
        463850 MiB available memory on the node where the printing process lives
     GPU memory used/free/total (MiB): 32571 / 32397 / 64969
------------------
     ethr =  3.69E-06,  avg # of iterations = 39.0

     negative rho (up, down):  3.879E-02 0.000E+00

     total cpu time spent up to now is      105.1 secs

     total energy              =   -9096.09392560 Ry
     estimated scf accuracy    <       0.17812964 Ry
[tb_dev] Currently allocated     2.41E+01 Mbytes, locked:    0 /   6
[tb_pin] Currently allocated     0.00E+00 Mbytes, locked:    0 /   0

     iteration # 16     ecut=    90.00 Ry     beta= 0.20
     Davidson diagonalization with overlap

---- Real-time Memory Report at c_bands before calling an iterative solver
         10682 MiB given to the printing process from OS
         -1883 MiB allocation reported by mallinfo(arena+hblkhd)
        463850 MiB available memory on the node where the printing process lives
     GPU memory used/free/total (MiB): 32571 / 32397 / 64969
------------------
     ethr =  3.69E-06,  avg # of iterations = 17.0

     negative rho (up, down):  3.958E-02 0.000E+00

     total cpu time spent up to now is      109.2 secs

     total energy              =   -9096.09289079 Ry
     estimated scf accuracy    <       0.03372561 Ry
[tb_dev] Currently allocated     2.41E+01 Mbytes, locked:    0 /   6
[tb_pin] Currently allocated     0.00E+00 Mbytes, locked:    0 /   0

     iteration # 17     ecut=    90.00 Ry     beta= 0.20
     Davidson diagonalization with overlap

---- Real-time Memory Report at c_bands before calling an iterative solver
         10682 MiB given to the printing process from OS
         -1883 MiB allocation reported by mallinfo(arena+hblkhd)
        463850 MiB available memory on the node where the printing process lives
     GPU memory used/free/total (MiB): 32571 / 32397 / 64969
------------------
     ethr =  2.42E-06,  avg # of iterations = 34.0

     negative rho (up, down):  3.989E-02 0.000E+00

     total cpu time spent up to now is      115.9 secs

     total energy              =   -9096.09756782 Ry
     estimated scf accuracy    <       0.00583105 Ry
[tb_dev] Currently allocated     2.41E+01 Mbytes, locked:    0 /   6
[tb_pin] Currently allocated     0.00E+00 Mbytes, locked:    0 /   0

     iteration # 18     ecut=    90.00 Ry     beta= 0.20
     Davidson diagonalization with overlap

---- Real-time Memory Report at c_bands before calling an iterative solver
         10682 MiB given to the printing process from OS
         -1883 MiB allocation reported by mallinfo(arena+hblkhd)
        463850 MiB available memory on the node where the printing process lives
     GPU memory used/free/total (MiB): 32571 / 32397 / 64969
------------------
     ethr =  4.19E-07,  avg # of iterations =  2.0

     negative rho (up, down):  4.030E-02 0.000E+00

     total cpu time spent up to now is      119.4 secs

     total energy              =   -9096.09745148 Ry
     estimated scf accuracy    <       0.00231428 Ry
[tb_dev] Currently allocated     2.41E+01 Mbytes, locked:    0 /   6
[tb_pin] Currently allocated     0.00E+00 Mbytes, locked:    0 /   0

     iteration # 19     ecut=    90.00 Ry     beta= 0.20
     Davidson diagonalization with overlap

---- Real-time Memory Report at c_bands before calling an iterative solver
         10682 MiB given to the printing process from OS
         -1883 MiB allocation reported by mallinfo(arena+hblkhd)
        463850 MiB available memory on the node where the printing process lives
     GPU memory used/free/total (MiB): 32571 / 32397 / 64969
------------------
     ethr =  1.66E-07,  avg # of iterations =  2.0

     negative rho (up, down):  4.056E-02 0.000E+00

     total cpu time spent up to now is      123.0 secs

     total energy              =   -9096.09764377 Ry
     estimated scf accuracy    <       0.00046004 Ry
[tb_dev] Currently allocated     2.41E+01 Mbytes, locked:    0 /   6
[tb_pin] Currently allocated     0.00E+00 Mbytes, locked:    0 /   0

     iteration # 20     ecut=    90.00 Ry     beta= 0.20
     Davidson diagonalization with overlap

---- Real-time Memory Report at c_bands before calling an iterative solver
         10682 MiB given to the printing process from OS
         -1883 MiB allocation reported by mallinfo(arena+hblkhd)
        464040 MiB available memory on the node where the printing process lives
     GPU memory used/free/total (MiB): 32571 / 32397 / 64969
------------------
     ethr =  3.30E-08,  avg # of iterations =  4.0

     negative rho (up, down):  4.073E-02 0.000E+00

     total cpu time spent up to now is      126.9 secs

     total energy              =   -9096.09769502 Ry
     estimated scf accuracy    <       0.00029920 Ry
[tb_dev] Currently allocated     2.41E+01 Mbytes, locked:    0 /   6
[tb_pin] Currently allocated     0.00E+00 Mbytes, locked:    0 /   0

     iteration # 21     ecut=    90.00 Ry     beta= 0.20
     Davidson diagonalization with overlap

---- Real-time Memory Report at c_bands before calling an iterative solver
         10682 MiB given to the printing process from OS
         -1883 MiB allocation reported by mallinfo(arena+hblkhd)
        463850 MiB available memory on the node where the printing process lives
     GPU memory used/free/total (MiB): 32571 / 32397 / 64969
------------------
     ethr =  2.15E-08,  avg # of iterations =  2.0

     negative rho (up, down):  4.083E-02 0.000E+00

     total cpu time spent up to now is      130.4 secs

     total energy              =   -9096.09771371 Ry
     estimated scf accuracy    <       0.00007930 Ry
[tb_dev] Currently allocated     2.41E+01 Mbytes, locked:    0 /   6
[tb_pin] Currently allocated     0.00E+00 Mbytes, locked:    0 /   0

     iteration # 22     ecut=    90.00 Ry     beta= 0.20
     Davidson diagonalization with overlap

---- Real-time Memory Report at c_bands before calling an iterative solver
         10682 MiB given to the printing process from OS
         -1883 MiB allocation reported by mallinfo(arena+hblkhd)
        463850 MiB available memory on the node where the printing process lives
     GPU memory used/free/total (MiB): 32571 / 32397 / 64969
------------------
     ethr =  5.70E-09,  avg # of iterations =  4.0

     negative rho (up, down):  4.091E-02 0.000E+00

     total cpu time spent up to now is      134.3 secs

     total energy              =   -9096.09772043 Ry
     estimated scf accuracy    <       0.00003954 Ry
[tb_dev] Currently allocated     2.41E+01 Mbytes, locked:    0 /   6
[tb_pin] Currently allocated     0.00E+00 Mbytes, locked:    0 /   0

     iteration # 23     ecut=    90.00 Ry     beta= 0.20
     Davidson diagonalization with overlap

---- Real-time Memory Report at c_bands before calling an iterative solver
         10682 MiB given to the printing process from OS
         -1883 MiB allocation reported by mallinfo(arena+hblkhd)
        463850 MiB available memory on the node where the printing process lives
     GPU memory used/free/total (MiB): 32571 / 32397 / 64969
------------------
     ethr =  2.84E-09,  avg # of iterations =  2.0

     negative rho (up, down):  4.095E-02 0.000E+00

     total cpu time spent up to now is      138.1 secs

     total energy              =   -9096.09772554 Ry
     estimated scf accuracy    <       0.00001129 Ry
[tb_dev] Currently allocated     2.41E+01 Mbytes, locked:    0 /   6
[tb_pin] Currently allocated     0.00E+00 Mbytes, locked:    0 /   0

     iteration # 24     ecut=    90.00 Ry     beta= 0.20
     Davidson diagonalization with overlap

---- Real-time Memory Report at c_bands before calling an iterative solver
         10682 MiB given to the printing process from OS
         -1883 MiB allocation reported by mallinfo(arena+hblkhd)
        463849 MiB available memory on the node where the printing process lives
     GPU memory used/free/total (MiB): 32571 / 32397 / 64969
------------------
     ethr =  8.11E-10,  avg # of iterations =  4.0

     negative rho (up, down):  4.098E-02 0.000E+00

     total cpu time spent up to now is      142.0 secs

     total energy              =   -9096.09772746 Ry
     estimated scf accuracy    <       0.00000342 Ry
[tb_dev] Currently allocated     2.41E+01 Mbytes, locked:    0 /   6
[tb_pin] Currently allocated     0.00E+00 Mbytes, locked:    0 /   0

     iteration # 25     ecut=    90.00 Ry     beta= 0.20
     Davidson diagonalization with overlap

---- Real-time Memory Report at c_bands before calling an iterative solver
         10682 MiB given to the printing process from OS
         -1883 MiB allocation reported by mallinfo(arena+hblkhd)
        463849 MiB available memory on the node where the printing process lives
     GPU memory used/free/total (MiB): 32571 / 32397 / 64969
------------------
     ethr =  2.45E-10,  avg # of iterations =  4.0

     negative rho (up, down):  4.100E-02 0.000E+00

     total cpu time spent up to now is      145.8 secs

     total energy              =   -9096.09772765 Ry
     estimated scf accuracy    <       0.00000186 Ry
[tb_dev] Currently allocated     2.41E+01 Mbytes, locked:    0 /   6
[tb_pin] Currently allocated     0.00E+00 Mbytes, locked:    0 /   0

     iteration # 26     ecut=    90.00 Ry     beta= 0.20
     Davidson diagonalization with overlap

---- Real-time Memory Report at c_bands before calling an iterative solver
         10682 MiB given to the printing process from OS
         -1883 MiB allocation reported by mallinfo(arena+hblkhd)
        463850 MiB available memory on the node where the printing process lives
     GPU memory used/free/total (MiB): 32571 / 32397 / 64969
------------------
     ethr =  1.34E-10,  avg # of iterations =  4.0

     negative rho (up, down):  4.102E-02 0.000E+00

     total cpu time spent up to now is      149.7 secs

     total energy              =   -9096.09772806 Ry
     estimated scf accuracy    <       0.00000069 Ry
[tb_dev] Currently allocated     2.41E+01 Mbytes, locked:    0 /   6
[tb_pin] Currently allocated     0.00E+00 Mbytes, locked:    0 /   0

     iteration # 27     ecut=    90.00 Ry     beta= 0.20
     Davidson diagonalization with overlap

---- Real-time Memory Report at c_bands before calling an iterative solver
         10682 MiB given to the printing process from OS
         -1883 MiB allocation reported by mallinfo(arena+hblkhd)
        463850 MiB available memory on the node where the printing process lives
     GPU memory used/free/total (MiB): 32571 / 32397 / 64969
------------------
     ethr =  4.94E-11,  avg # of iterations =  4.0

     negative rho (up, down):  4.103E-02 0.000E+00

     total cpu time spent up to now is      153.6 secs

     total energy              =   -9096.09772816 Ry
     estimated scf accuracy    <       0.00000028 Ry
[tb_dev] Currently allocated     2.41E+01 Mbytes, locked:    0 /   6
[tb_pin] Currently allocated     0.00E+00 Mbytes, locked:    0 /   0

     iteration # 28     ecut=    90.00 Ry     beta= 0.20
     Davidson diagonalization with overlap

---- Real-time Memory Report at c_bands before calling an iterative solver
         10682 MiB given to the printing process from OS
         -1883 MiB allocation reported by mallinfo(arena+hblkhd)
        463850 MiB available memory on the node where the printing process lives
     GPU memory used/free/total (MiB): 32571 / 32397 / 64969
------------------
     ethr =  2.01E-11,  avg # of iterations =  2.0

     negative rho (up, down):  4.104E-02 0.000E+00

     total cpu time spent up to now is      157.1 secs

     total energy              =   -9096.09772819 Ry
     estimated scf accuracy    <       0.00000012 Ry
[tb_dev] Currently allocated     2.41E+01 Mbytes, locked:    0 /   6
[tb_pin] Currently allocated     0.00E+00 Mbytes, locked:    0 /   0

     iteration # 29     ecut=    90.00 Ry     beta= 0.20
     Davidson diagonalization with overlap

---- Real-time Memory Report at c_bands before calling an iterative solver
         10682 MiB given to the printing process from OS
         -1883 MiB allocation reported by mallinfo(arena+hblkhd)
        463850 MiB available memory on the node where the printing process lives
     GPU memory used/free/total (MiB): 32571 / 32397 / 64969
------------------
     ethr =  8.43E-12,  avg # of iterations =  4.0

     negative rho (up, down):  4.106E-02 0.000E+00

     total cpu time spent up to now is      160.7 secs

     End of self-consistent calculation

          k = 0.0000 0.0000 0.0000 (371318 PWs)   bands (ev):

[...]
     atom  143 type  1   force =     0.00000614   -0.00000533   -0.00003343
     atom  144 type  1   force =    -0.00000254    0.00000509    0.00000386
     atom  145 type  1   force =     0.00000538   -0.00001053   -0.00000457
     atom  146 type  1   force =     0.00000063    0.00000551   -0.00000204
     atom  147 type  1   force =    -0.00001174   -0.00002403   -0.00000209
     atom  148 type  1   force =    -0.00000538    0.00001919   -0.00000019
     atom  149 type  1   force =    -0.00000293    0.00000428   -0.00000382
     atom  150 type  4   force =     0.00000607    0.00001211   -0.00002184
     atom  151 type  2   force =    -0.00000471   -0.00000102   -0.00000319
     atom  152 type  2   force =     0.00000262   -0.00000233   -0.00000360
     atom  153 type  2   force =     0.00000162    0.00000354   -0.00000421
     atom  154 type  2   force =    -0.00000082    0.00000621    0.00000667
     atom  155 type  2   force =     0.00000430   -0.00000051    0.00000563
     atom  156 type  2   force =     0.00000351    0.00000045    0.00001033
     atom  157 type  2   force =    -0.00001765    0.00000475   -0.00000443
     atom  158 type  2   force =     0.00000250   -0.00001408   -0.00000355
     atom  159 type  2   force =     0.00001577    0.00001204   -0.00000163
     atom  160 type  2   force =    -0.00000643    0.00000677    0.00000368
     atom  161 type  2   force =    -0.00000049   -0.00002007   -0.00000530
     atom  162 type  2   force =     0.00001382    0.00000539   -0.00000347
     atom  163 type  2   force =    -0.00000117   -0.00000278   -0.00001137
     atom  164 type  2   force =     0.00000104    0.00000542   -0.00000330
     atom  165 type  3   force =     0.00003530    0.00000241    0.00000540
     atom  166 type  3   force =    -0.00002461    0.00002629    0.00000201
     atom  167 type  1   force =    -0.00005952    0.00001226   -0.00002963
     atom  168 type  1   force =     0.00001764   -0.00000411    0.00004173
     atom  169 type  1   force =    -0.00001271    0.00000238   -0.00001679
     atom  170 type  1   force =     0.00000443   -0.00001405   -0.00002324
     atom  171 type  1   force =    -0.00000325    0.00001650   -0.00001712
     atom  172 type  1   force =     0.00003463    0.00003664   -0.00003070
     atom  173 type  1   force =     0.00002556   -0.00003748   -0.00002355
     atom  174 type  1   force =    -0.00000554    0.00000494   -0.00000333
     atom  175 type  4   force =    -0.00000088   -0.00000124   -0.00002853
     atom  176 type  2   force =    -0.00000609    0.00000016   -0.00000680
     atom  177 type  2   force =     0.00000198   -0.00000226   -0.00000490
     atom  178 type  2   force =    -0.00000182    0.00000651   -0.00000466
     atom  179 type  2   force =     0.00000125    0.00000178   -0.00000552
     atom  180 type  2   force =     0.00000014    0.00000475    0.00000370
     atom  181 type  2   force =     0.00000660   -0.00001095   -0.00000142
     atom  182 type  2   force =     0.00000918   -0.00000182   -0.00001448
     atom  183 type  2   force =    -0.00000107    0.00000828   -0.00000608
     atom  184 type  2   force =    -0.00000280   -0.00000375   -0.00000835
     atom  185 type  2   force =     0.00000145   -0.00000199   -0.00000045
     atom  186 type  2   force =     0.00000009   -0.00000004   -0.00000331
     atom  187 type  2   force =    -0.00000719   -0.00000294   -0.00001032
     atom  188 type  2   force =    -0.00000189    0.00000205    0.00000049
     atom  189 type  2   force =     0.00000029   -0.00000251   -0.00000792
     atom  190 type  3   force =    -0.00001428    0.00001151   -0.00004747
     atom  191 type  3   force =     0.00001615   -0.00000741   -0.00004297
     atom  192 type  1   force =     0.00001202   -0.00000040   -0.00001871
     atom  193 type  1   force =    -0.00000366    0.00000739   -0.00003319
     atom  194 type  1   force =     0.00000808    0.00000353    0.00000088
     atom  195 type  1   force =    -0.00000316    0.00000833    0.00000689
     atom  196 type  1   force =     0.00000234   -0.00001023    0.00000421
     atom  197 type  1   force =    -0.00001371   -0.00000073   -0.00001831
     atom  198 type  1   force =     0.00000017    0.00000462   -0.00002499
     atom  199 type  1   force =     0.00000407   -0.00000285   -0.00001573
     atom  200 type  4   force =    -0.00000492    0.00000373   -0.00001539
     atom  201 type  2   force =    -0.00000493    0.00000020   -0.00000317
     atom  202 type  2   force =     0.00000401   -0.00000397   -0.00000283
     atom  203 type  2   force =     0.00000294    0.00000652   -0.00000225
     atom  204 type  2   force =     0.00000061    0.00000770    0.00000941
     atom  205 type  2   force =    -0.00000273   -0.00000368    0.00000422
     atom  206 type  2   force =    -0.00000021   -0.00000161    0.00000645
     atom  207 type  2   force =    -0.00000965    0.00000582   -0.00000665
     atom  208 type  2   force =     0.00000125   -0.00001320   -0.00000660
     atom  209 type  2   force =     0.00001092    0.00000630   -0.00000638
     atom  210 type  2   force =    -0.00001286    0.00000666   -0.00000837
     atom  211 type  2   force =     0.00000132   -0.00001716   -0.00000917
     atom  212 type  2   force =     0.00002339   -0.00000147   -0.00000654
     atom  213 type  2   force =     0.00000042    0.00000162   -0.00000801
     atom  214 type  2   force =     0.00000478   -0.00000352   -0.00000070
     atom  215 type  3   force =    -0.00000190   -0.00001052    0.00001586
     atom  216 type  3   force =     0.00000455   -0.00000100    0.00001843
     atom  217 type  1   force =     0.00001564    0.00000054   -0.00000846
     atom  218 type  1   force =    -0.00000194   -0.00000214   -0.00003209
     atom  219 type  1   force =    -0.00001670   -0.00000077   -0.00001470
     atom  220 type  1   force =     0.00000898   -0.00000730   -0.00001730
     atom  221 type  1   force =     0.00000455    0.00001267   -0.00001679
     atom  222 type  1   force =    -0.00001050   -0.00002290    0.00000089
     atom  223 type  1   force =    -0.00001408    0.00000786   -0.00000184
     atom  224 type  1   force =    -0.00000022   -0.00000487   -0.00001008
     atom  225 type  4   force =     0.00000267    0.00000188   -0.00001767
     atom  226 type  2   force =    -0.00000073   -0.00000597   -0.00000149
     atom  227 type  2   force =    -0.00000175   -0.00000162   -0.00000104
     atom  228 type  2   force =    -0.00000054   -0.00000118   -0.00000488
     atom  229 type  2   force =     0.00000719    0.00000236   -0.00000368
     atom  230 type  2   force =     0.00000484    0.00000638   -0.00000265
     atom  231 type  2   force =    -0.00000174   -0.00000506   -0.00000108
     atom  232 type  2   force =    -0.00000246   -0.00000803   -0.00000899
     atom  233 type  2   force =     0.00000067    0.00000354   -0.00000991
     atom  234 type  2   force =    -0.00000594   -0.00000219   -0.00000316
     atom  235 type  2   force =     0.00000059   -0.00000165   -0.00000500
     atom  236 type  2   force =    -0.00000703   -0.00000290   -0.00001079
     atom  237 type  2   force =     0.00000863   -0.00000090   -0.00001277
     atom  238 type  2   force =     0.00000325   -0.00000031   -0.00001516
     atom  239 type  2   force =     0.00000131    0.00000333   -0.00000588
     atom  240 type  3   force =    -0.00001169    0.00000226   -0.00003014
     atom  241 type  3   force =    -0.00000217   -0.00000002   -0.00003771
     atom  242 type  1   force =    -0.00001138   -0.00000447   -0.00000806
     atom  243 type  1   force =    -0.00000419   -0.00000549   -0.00001208
     atom  244 type  1   force =     0.00000411   -0.00000097    0.00000186
     atom  245 type  1   force =    -0.00000471   -0.00000545    0.00000417
     atom  246 type  1   force =    -0.00000546   -0.00001101   -0.00000522
     atom  247 type  1   force =    -0.00000087    0.00000306   -0.00001496
     atom  248 type  1   force =    -0.00000340   -0.00000884   -0.00000676
     atom  249 type  1   force =    -0.00000354   -0.00000629   -0.00001283
     atom  250 type  4   force =     0.00000606    0.00000627   -0.00002566
     atom  251 type  2   force =    -0.00000564   -0.00000164   -0.00000441
     atom  252 type  2   force =     0.00000456   -0.00000244   -0.00000332
     atom  253 type  2   force =     0.00000335    0.00000329   -0.00000230
     atom  254 type  2   force =    -0.00000525   -0.00000257   -0.00000036
     atom  255 type  2   force =    -0.00000230    0.00000386    0.00000621
     atom  256 type  2   force =    -0.00000084   -0.00000159    0.00000735
     atom  257 type  2   force =    -0.00001402    0.00000542   -0.00000707
     atom  258 type  2   force =    -0.00000053   -0.00000986   -0.00000865
     atom  259 type  2   force =     0.00000954    0.00000314   -0.00000653
     atom  260 type  2   force =    -0.00001544    0.00001231   -0.00000758
     atom  261 type  2   force =    -0.00000581   -0.00001943   -0.00000302
     atom  262 type  2   force =     0.00000567    0.00000844    0.00000132
     atom  263 type  2   force =     0.00000008    0.00000060   -0.00001019
     atom  264 type  2   force =    -0.00000944   -0.00000206   -0.00000373
     atom  265 type  3   force =     0.00002316    0.00000875    0.00000569
     atom  266 type  3   force =     0.00000644    0.00000063    0.00001676
     atom  267 type  1   force =     0.00000873    0.00000205   -0.00001892
     atom  268 type  1   force =     0.00000556    0.00000293   -0.00003477
     atom  269 type  1   force =    -0.00001025   -0.00000574   -0.00001951
     atom  270 type  1   force =     0.00001063   -0.00001356   -0.00001768
     atom  271 type  1   force =     0.00000737    0.00001431   -0.00001828
     atom  272 type  1   force =    -0.00001023   -0.00002347    0.00000084
     atom  273 type  1   force =    -0.00001383    0.00001889   -0.00000951
     atom  274 type  1   force =    -0.00000165    0.00000191    0.00000391
     atom  275 type  4   force =    -0.00000544    0.00000269   -0.00002783
     atom  276 type  2   force =    -0.00000022   -0.00000335   -0.00000272
     atom  277 type  2   force =    -0.00000042    0.00000182   -0.00000113
     atom  278 type  2   force =    -0.00000067   -0.00000286   -0.00000374
     atom  279 type  2   force =    -0.00000089    0.00000123   -0.00000169
     atom  280 type  2   force =    -0.00000683    0.00000162   -0.00000218
     atom  281 type  2   force =     0.00000079    0.00000405   -0.00000487
     atom  282 type  2   force =     0.00000296   -0.00000346   -0.00000980
     atom  283 type  2   force =     0.00000449    0.00000429   -0.00001051
     atom  284 type  2   force =    -0.00000572    0.00000279   -0.00000787
     atom  285 type  2   force =     0.00000171    0.00000533   -0.00001379
     atom  286 type  2   force =     0.00000151    0.00000197   -0.00000351
     atom  287 type  2   force =    -0.00000258    0.00000225   -0.00000670
     atom  288 type  2   force =     0.00000227   -0.00000200    0.00000265
     atom  289 type  2   force =     0.00000318    0.00000673   -0.00000363
     atom  290 type  3   force =    -0.00002491   -0.00000760   -0.00002970
     atom  291 type  3   force =    -0.00001661    0.00000687   -0.00003228
     atom  292 type  1   force =     0.00001255   -0.00000198    0.00000155
     atom  293 type  1   force =    -0.00000637    0.00000050   -0.00002957
     atom  294 type  1   force =    -0.00001195    0.00000098   -0.00000052
     atom  295 type  1   force =    -0.00001080   -0.00000354    0.00000198
     atom  296 type  1   force =    -0.00000066    0.00000628   -0.00000219
     atom  297 type  1   force =    -0.00000881   -0.00001065   -0.00000174
     atom  298 type  1   force =    -0.00001324    0.00001743   -0.00000701
     atom  299 type  1   force =    -0.00000770   -0.00000043    0.00000286
     atom  300 type  4   force =     0.00000642   -0.00000276   -0.00002096

     Total force =     1.009569     Total SCF correction =     0.000329


     Computing stress (Cartesian axis) and pressure


     negative rho (up, down):  4.106E-02 0.000E+00
          total   stress  (Ry/bohr**3)                   (kbar)     P=        5.10
   0.00006860   0.00000616   0.00000477           10.09        0.91        0.70
   0.00000616   0.00006371  -0.00000156            0.91        9.37       -0.23
   0.00000477  -0.00000156  -0.00002822            0.70       -0.23       -4.15

     kinetic stress (kbar)   5337.25      1.03      1.10
                                1.03   5336.60     -0.52
                                1.10     -0.52   5327.31

     local   stress (kbar)-647087.71    -53.35     88.08
                              -53.35-646991.29    -34.24
                               88.08    -34.24 640598.20

     nonloc. stress (kbar)    957.15      0.22      0.06
                                0.22    957.24     -0.19
                                0.06     -0.19    955.24

     hartree stress (kbar) 324143.48     17.35    -32.78
                               17.35 324101.96     18.89
                              -32.78     18.89-318221.65

     exc-cor stress (kbar)  -1264.16      0.12     -0.11
                                0.12  -1264.20     -0.06
                               -0.11     -0.06  -1266.13

     corecor stress (kbar)   -292.87     -0.02      0.00
                               -0.02   -292.86      0.01
                                0.00      0.01   -292.77

     ewald   stress (kbar) 318216.95     35.56    -55.66
                               35.56 318161.93     15.87
                              -55.66     15.87-327104.34

     hubbard stress (kbar)      0.00      0.00      0.00
                                0.00      0.00      0.00
                                0.00      0.00      0.00

     DFT-D   stress (kbar)      0.00      0.00      0.00
                                0.00      0.00      0.00
                                0.00      0.00      0.00

     XDM     stress (kbar)      0.00      0.00      0.00
                                0.00      0.00      0.00
                                0.00      0.00      0.00

     dft-nl  stress (kbar)      0.00      0.00      0.00
                                0.00      0.00      0.00
                                0.00      0.00      0.00

     TS-vdW  stress (kbar)      0.00      0.00      0.00
                                0.00      0.00      0.00
                                0.00      0.00      0.00

     MDB     stress (kbar)      0.00      0.00      0.00
                                0.00      0.00      0.00
                                0.00      0.00      0.00

     3D-RISM stress (kbar)      0.00      0.00      0.00
                                0.00      0.00      0.00
                                0.00      0.00      0.00


     Writing all to output data dir ./tmp/pwscf.save/
 
     init_run     :     29.40s CPU     34.19s WALL (       1 calls)
     electrons    :    119.14s CPU    126.20s WALL (       1 calls)
     forces       :      3.11s CPU      3.35s WALL (       1 calls)
     stress       :     81.06s CPU     83.52s WALL (       1 calls)

     Called by init_run:
     wfcinit      :      3.46s CPU      5.38s WALL (       1 calls)
                                        5.38s GPU  (       1 calls)
     wfcinit:atom :      0.01s CPU      0.01s WALL (       1 calls)
                                        0.01s GPU  (       1 calls)
     wfcinit:wfcr :      1.24s CPU      2.38s WALL (       1 calls)
                                        2.38s GPU  (       1 calls)
     potinit      :     16.27s CPU     16.53s WALL (       1 calls)
     hinit0       :      7.35s CPU      7.59s WALL (       1 calls)

     Called by electrons:
     c_bands      :     77.46s CPU     79.31s WALL (      29 calls)
     sum_band     :     15.82s CPU     16.33s WALL (      29 calls)
     v_of_rho     :      3.21s CPU      3.36s WALL (      30 calls)
     v_h          :      1.75s CPU      1.84s WALL (      30 calls)
     v_xc         :      1.59s CPU      1.65s WALL (      32 calls)
     newd         :      2.46s CPU      4.85s WALL (      30 calls)
                                        4.85s GPU  (      30 calls)
     PAW_pot      :      3.26s CPU      3.27s WALL (      30 calls)
     mix_rho      :      8.05s CPU      8.31s WALL (      29 calls)

     Called by c_bands:
     init_us_2    :      0.46s CPU      0.66s WALL (      59 calls)
     init_us_2:gp :      0.46s CPU      0.66s WALL (      59 calls)
     regterg      :     68.30s CPU     69.95s WALL (      32 calls)

     Called by sum_band:
     sum_band:wei :      0.01s CPU      0.01s WALL (      29 calls)
                                        0.01s GPU  (      29 calls)
     sum_band:loo :     12.43s CPU     12.89s WALL (      29 calls)
                                       12.88s GPU  (      29 calls)
     sum_band:buf :      1.88s CPU      1.90s WALL (      29 calls)
                                        1.90s GPU  (      29 calls)
     sum_band:ini :      0.23s CPU      0.49s WALL (      29 calls)
                                        0.48s GPU  (      29 calls)
     sum_band:cal :      2.06s CPU      2.11s WALL (      29 calls)
                                        2.11s GPU  (      29 calls)
     sum_band:bec :      0.20s CPU      0.20s WALL (      29 calls)
                                        0.20s GPU  (      29 calls)
     addusdens    :      2.07s CPU      2.11s WALL (      29 calls)
                                        2.11s GPU  (      29 calls)
     addusd:skk   :      0.44s CPU      0.44s WALL (     116 calls)
                                        0.44s GPU  (     116 calls)

     Called by *egterg:
     rdiaghg      :      7.45s CPU      7.56s WALL (     290 calls)
                                        7.56s GPU  (     290 calls)
     regterg:over :      4.14s CPU      4.24s WALL (     258 calls)
     regterg:upda :      2.31s CPU      2.39s WALL (     258 calls)
     regterg:last :      4.60s CPU      4.61s WALL (      71 calls)
     h_psi        :     42.78s CPU     45.05s WALL (     291 calls)
                                       45.05s GPU  (     291 calls)
     s_psi        :      1.21s CPU      5.48s WALL (     291 calls)
                                        5.33s GPU  (     291 calls)
     g_psi        :      0.00s CPU      0.22s WALL (     258 calls)
                                        0.21s GPU  (     258 calls)

     Called by h_psi:
     h_psi:calbec :      6.24s CPU      6.47s WALL (     291 calls)
                                        6.47s GPU  (     291 calls)
     vloc_psi     :     31.53s CPU     32.90s WALL (     291 calls)
                                       32.90s GPU  (     291 calls)
     add_vuspsi   :      0.56s CPU      5.46s WALL (     291 calls)
                                        5.45s GPU  (     291 calls)

     General routines
     calbec       :      8.69s CPU      9.14s WALL (     325 calls)
     fft          :      5.78s CPU      7.62s WALL (     348 calls)
                                        0.75s GPU  (     318 calls)
     ffts         :      2.93s CPU      3.46s WALL (      59 calls)
                                        0.04s GPU  (      29 calls)
     fftw         :     18.67s CPU     31.58s WALL (   16788 calls)
                                       31.39s GPU  (   16788 calls)
     interpolate  :      9.29s CPU     11.50s WALL (      30 calls)
 
     Parallel routines

     PAW routines
     PAW_pot      :      3.26s CPU      3.27s WALL (      30 calls)
 
     PWSCF        :   3m55.11s CPU   4m14.84s WALL

 
   This run was terminated on:  14:38:11  30Dec2023            

=------------------------------------------------------------------------------=
   JOB DONE.
=------------------------------------------------------------------------------=
