
     Program PWSCF v.7.2 starts on 30Dec2023 at 13:30:25 

     This program is part of the open-source Quantum ESPRESSO suite
     for quantum simulation of materials; please cite
         "P. Giannozzi et al., J. Phys.:Condens. Matter 21 395502 (2009);
         "P. Giannozzi et al., J. Phys.:Condens. Matter 29 465901 (2017);
         "P. Giannozzi et al., J. Chem. Phys. 152 154105 (2020);
          URL http://www.quantum-espresso.org", 
     in publications or presentations arising from this work. More details at
     http://www.quantum-espresso.org/quote

     Parallel version (MPI & OpenMP), running on       4 processor cores
     Number of MPI processes:                 4
     Threads/MPI process:                     1

     MPI processes distributed on     1 nodes
     504198 MiB available memory on the printing compute node when the environment starts
 
     Reading input from input_0002.inp

     Current dimensions of program PWSCF are:
     Max number of different atomic species (ntypx) = 10
     Max number of k-points (npk) =  40000
     Max angular momentum in pseudopotentials (lmaxx) =  4
     file O.pbe-n-kjpaw_psl.0.1.UPF: wavefunction(s)  2P renormalized

     gamma-point specific algorithms are used
 
     R & G space division:  proc/nbgrp/npool/nimage =       4
     Subspace diagonalization in iterative solution of the eigenvalue problem:
     a serial algorithm will be used

 
     Parallelization info
     --------------------
     sticks:   dense  smooth     PW     G-vecs:    dense   smooth      PW
     Min        6485    4324   1079              2728975  1485363  185656
     Max        6486    4326   1080              2728990  1485382  185664
     Sum       25943   17301   4319             10915929  5941483  742635
 
     Using Slab Decomposition
 


     bravais-lattice index     =            0
     lattice parameter (alat)  =      32.3352  a.u.
     unit-cell volume          =   51510.8153 (a.u.)^3
     number of atoms/cell      =          300
     number of atomic types    =            4
     number of electrons       =      1392.00
     number of Kohn-Sham states=          835
     kinetic-energy cutoff     =      90.0000  Ry
     charge density cutoff     =     540.0000  Ry
     scf convergence threshold =      1.0E-07
     mixing beta               =       0.2000
     number of iterations used =            8  plain     mixing
     Exchange-correlation= SLA  PW   PBX  PBC
                           (   1   4   3   4   0   0   0)

     GPU acceleration is ACTIVE.
     GPU-aware MPI enabled


     GPU used by master process:

        Device Number: 0
        Device name: NVIDIA PG506-243
        Compute capability : 80
        Ratio of single to double precision performance  : 2
        Memory Clock Rate (KHz): 1593000
        Memory Bus Width (bits): 4096
        Peak Memory Bandwidth (GB/s): ******

     celldm(1)=  32.335181  celldm(2)=   0.000000  celldm(3)=   0.000000
     celldm(4)=   0.000000  celldm(5)=   0.000000  celldm(6)=   0.000000

     crystal axes: (cart. coord. in units of alat)
               a(1) = (   1.000000   0.000000   0.000000 )  
               a(2) = (  -0.333333   0.577350   0.000000 )  
               a(3) = (   0.000000  -0.000000   2.638962 )  

     reciprocal axes: (cart. coord. in units 2 pi/alat)
               b(1) = (  1.000000  0.577350  0.000000 )  
               b(2) = ( -0.000000  1.732051  0.000000 )  
               b(3) = (  0.000000 -0.000000  0.378937 )  


     PseudoPot. # 1 for N  read from file:
     /leonardo_scratch/large/userexternal/uraucci0/Li_Cr/PPS/N.pbe-n-radius_5.UPF
     MD5 check sum: 16739722b17309cd8fe442a2ace49922
     Pseudo is Ultrasoft + core correction, Zval =  5.0
     Generated using "atomic" code by A. Dal Corso  v.5.1
     Using radial grid of 1085 points,  4 beta functions with: 
                l(1) =   0
                l(2) =   0
                l(3) =   1
                l(4) =   1
     Q(r) pseudized with 0 coefficients 


     PseudoPot. # 2 for Li read from file:
     /leonardo_scratch/large/userexternal/uraucci0/Li_Cr/PPS/li_pbe_v1.4.uspp.F.UPF
     MD5 check sum: e912e257baa3777c20ea3d68f190483c
     Pseudo is Ultrasoft, Zval =  3.0
     Generated by new atomic code, or converted to UPF format
     Using radial grid of  751 points,  5 beta functions with: 
                l(1) =   0
                l(2) =   0
                l(3) =   0
                l(4) =   1
                l(5) =   1
     Q(r) pseudized with 10 coefficients,  rinner =    1.150   1.150   1.150


     PseudoPot. # 3 for Cr read from file:
     /leonardo_scratch/large/userexternal/uraucci0/Li_Cr/PPS/cr_pbe_v1.5.uspp.F.UPF
     MD5 check sum: 0d52af634a40206e4dee301ad30da4bf
     Pseudo is Ultrasoft + core correction, Zval = 14.0
     Generated by new atomic code, or converted to UPF format
     Using radial grid of  857 points,  6 beta functions with: 
                l(1) =   0
                l(2) =   0
                l(3) =   1
                l(4) =   1
                l(5) =   2
                l(6) =   2
     Q(r) pseudized with  8 coefficients,  rinner =    0.950   0.950   0.950
                                                       0.950   0.950

     PseudoPot. # 4 for O  read from file:
     /leonardo_scratch/large/userexternal/uraucci0/Li_Cr/PPS/O.pbe-n-kjpaw_psl.0.1.UPF
     MD5 check sum: 0234752ac141de4415c5fc33072bef88
     Pseudo is Projector augmented-wave + core cor, Zval =  6.0
     Generated using "atomic" code by A. Dal Corso  v.5.0.99 svn rev. 10869
     Shape of augmentation charge: BESSEL
     Using radial grid of 1095 points,  4 beta functions with: 
                l(1) =   0
                l(2) =   0
                l(3) =   1
                l(4) =   1
     Q(r) pseudized with 0 coefficients 


     atomic species   valence    mass     pseudopotential
        N              5.00    14.00674     N ( 1.00)
        Li             3.00     6.94100     Li( 1.00)
        Cr            14.00    51.99610     Cr( 1.00)
        O              6.00    15.99940     O ( 1.00)

     No symmetry found


                                    s                        frac. trans.

      isym =  1     identity                                     

 cryst.   s( 1) = (     1          0          0      )
                  (     0          1          0      )
                  (     0          0          1      )

 cart.    s( 1) = (  1.0000000  0.0000000  0.0000000 )
                  (  0.0000000  1.0000000  0.0000000 )
                  (  0.0000000  0.0000000  1.0000000 )


   Cartesian axes

     site n.     atom                  positions (alat units)
         1           Li  tau(   1) = (   0.2593273   0.0873080   0.8766270  )
         2           Li  tau(   2) = (   0.1280588   0.1809300   0.8766270  )
         3           Li  tau(   3) = (   0.1126144   0.0204373   0.8766270  )
         4           Li  tau(   4) = (  -0.0824532   0.1859530   1.2719916  )
         5           Li  tau(   5) = (   0.0289645   0.1019108   1.2650019  )
         6           Li  tau(   6) = (   0.0389959   0.2450558   1.2960345  )
         7           Li  tau(   7) = (   0.0669942   0.0904568   1.0336250  )
         8           Li  tau(   8) = (   0.2214985   0.0127904   1.0336250  )
         9           Li  tau(   9) = (   0.2115073   0.1854282   1.0336250  )
        10           Li  tau(  10) = (   0.0916274   0.1894379   1.1327423  )
        11           Li  tau(  11) = (  -0.0559717   0.2720735   1.1155312  )
        12           Li  tau(  12) = (  -0.0549353   0.0797771   1.1182254  )
        13           Li  tau(  13) = (   0.0000000   0.0000000   0.9626942  )
        14           Li  tau(  14) = (   0.6624495   0.5754098   1.2140524  )
        15           Cr  tau(  15) = (   0.1618686   0.0987994   1.2070569  )
        16           Cr  tau(  16) = (  -0.0000000   0.1924500   0.9478909  )
        17           N   tau(  17) = (   0.2566004   0.0860532   1.2440272  )
        18           N   tau(  18) = (   0.1671622   0.1037663   1.1014467  )
        19           N   tau(  19) = (  -0.0969339   0.1982778   0.9168466  )
        20           N   tau(  20) = (   0.0434200   0.1055885   0.9168466  )
        21           N   tau(  21) = (   0.0535141   0.2734837   0.9168466  )
        22           N   tau(  22) = (   0.1051269   0.0268779   1.2421512  )
        23           N   tau(  23) = (   0.1322684   0.1884012   1.2423265  )
        24           N   tau(  24) = (  -0.0000000   0.1924500   1.0497374  )
        25           O   tau(  25) = (  -0.3355015   0.5782997   1.0769538  )
        26           Li  tau(  26) = (   0.2519332   0.0762648   1.3740251  )
        27           Li  tau(  27) = (   0.1363745   0.1750916   1.3635114  )
        28           Li  tau(  28) = (   0.1110616   0.0177252   1.3687069  )
        29           Li  tau(  29) = (  -0.1160344   0.1894812   1.7978976  )
        30           Li  tau(  30) = (   0.0527613   0.0985919   1.7874833  )
        31           Li  tau(  31) = (   0.0472471   0.2675553   1.7689339  )
        32           Li  tau(  32) = (   0.0663496   0.0892997   1.5287264  )
        33           Li  tau(  33) = (   0.2118246   0.0245591   1.5160562  )
        34           Li  tau(  34) = (   0.2074070   0.2002076   1.5239517  )
        35           Li  tau(  35) = (   0.1059497   0.1936866   1.6051215  )
        36           Li  tau(  36) = (  -0.0677200   0.2620822   1.6074533  )
        37           Li  tau(  37) = (   0.9440863   0.0785113   1.6318002  )
        38           Li  tau(  38) = (   0.6677326   0.5615567   1.4706878  )
        39           Li  tau(  39) = (   0.6631741   0.5571619   1.7021933  )
        40           Cr  tau(  40) = (   0.1709785   0.0911967   1.6971323  )
        41           Cr  tau(  41) = (  -0.0019211   0.1927066   1.4386851  )
        42           N   tau(  42) = (   0.2695809   0.0742339   1.7285856  )
        43           N   tau(  43) = (   0.1598705   0.0897187   1.5928546  )
        44           N   tau(  44) = (  -0.0910278   0.1974146   1.3997570  )
        45           N   tau(  45) = (   0.0413608   0.1111937   1.3997044  )
        46           N   tau(  46) = (   0.0468876   0.2860913   1.4118545  )
        47           N   tau(  47) = (   0.1247803   0.0145584   1.7545922  )
        48           N   tau(  48) = (   0.1306192   0.1740245   1.7362357  )
        49           N   tau(  49) = (   0.0014493   0.1807576   1.5376037  )
        50           O   tau(  50) = (   0.6567280   0.5726338   1.5822591  )
        51           Li  tau(  51) = (   0.0926606   0.3759836   0.8766270  )
        52           Li  tau(  52) = (  -0.0386079   0.4696050   0.8766270  )
        53           Li  tau(  53) = (  -0.0540524   0.3091127   0.8766270  )
        54           Li  tau(  54) = (  -0.2480924   0.4771814   1.2780461  )
        55           Li  tau(  55) = (  -0.1187485   0.3782751   1.2727805  )
        56           Li  tau(  56) = (  -0.1313649   0.5467557   1.2640259  )
        57           Li  tau(  57) = (  -0.0996725   0.3791318   1.0336250  )
        58           Li  tau(  58) = (   0.0548319   0.3014656   1.0336250  )
        59           Li  tau(  59) = (   0.0448406   0.4741032   1.0336250  )
        60           Li  tau(  60) = (  -0.0596399   0.5060183   1.1143156  )
        61           Li  tau(  61) = (  -0.2361247   0.5779426   1.1211299  )
        62           Li  tau(  62) = (  -0.2034213   0.3833127   1.1315559  )
        63           Li  tau(  63) = (  -0.1666667   0.2886750   0.9626942  )
        64           Li  tau(  64) = (  -0.1681663   0.2837139   1.2006400  )
        65           Cr  tau(  65) = (  -0.0050032   0.3840433   1.1991906  )
        66           Cr  tau(  66) = (  -0.1666667   0.4811250   0.9478909  )
        67           N   tau(  67) = (   0.0898437   0.3793749   1.2422973  )
        68           N   tau(  68) = (   0.0005117   0.3871179   1.1031123  )
        69           N   tau(  69) = (  -0.2636006   0.4869528   0.9168466  )
        70           N   tau(  70) = (  -0.1232467   0.3942641   0.9168466  )
        71           N   tau(  71) = (  -0.1131527   0.5621587   0.9168466  )
        72           N   tau(  72) = (  -0.0505655   0.2956962   1.2292472  )
        73           N   tau(  73) = (  -0.0613919   0.4655333   1.2255186  )
        74           N   tau(  74) = (  -0.1666667   0.4811250   1.0497374  )
        75           O   tau(  75) = (   0.8352852   0.2875459   1.0835226  )
        76           Li  tau(  76) = (   0.1023965   0.3607320   1.3590523  )
        77           Li  tau(  77) = (  -0.0398097   0.4842248   1.3449328  )
        78           Li  tau(  78) = (  -0.0521563   0.3120862   1.3737387  )
        79           Li  tau(  79) = (  -0.2532534   0.4809064   1.8004457  )
        80           Li  tau(  80) = (  -0.1123216   0.3888869   1.7921411  )
        81           Li  tau(  81) = (  -0.1017583   0.5608443   1.7794592  )
        82           Li  tau(  82) = (  -0.1092692   0.3616285   1.5519453  )
        83           Li  tau(  83) = (   0.0644221   0.2914913   1.5336355  )
        84           Li  tau(  84) = (   0.0133393   0.4013549   1.4473111  )
        85           Li  tau(  85) = (  -0.0876826   0.4974887   1.6052851  )
        86           Li  tau(  86) = (  -0.2172106   0.5605743   1.6117488  )
        87           Li  tau(  87) = (  -0.2173737   0.3988740   1.6362885  )
        88           Li  tau(  88) = (   0.8343969   0.2842574   1.4528806  )
        89           Li  tau(  89) = (   0.8174839   0.2848418   1.7175285  )
        90           Cr  tau(  90) = (  -0.0126943   0.3706402   1.7015154  )
        91           Cr  tau(  91) = (  -0.1656001   0.4793011   1.4373585  )
        92           N   tau(  92) = (   0.0923334   0.3617588   1.7401805  )
        93           N   tau(  93) = (  -0.0135961   0.3796742   1.5944851  )
        94           N   tau(  94) = (  -0.2574092   0.4922991   1.3989973  )
        95           N   tau(  95) = (  -0.1152279   0.3966386   1.4007973  )
        96           N   tau(  96) = (  -0.1114023   0.5619284   1.4168337  )
        97           N   tau(  97) = (  -0.0589567   0.2859639   1.7384506  )
        98           N   tau(  98) = (  -0.0472252   0.4606727   1.7375272  )
        99           N   tau(  99) = (  -0.1780833   0.4886751   1.5337991  )
       100           O   tau( 100) = (   0.8391190   0.2772981   1.5710967  )
       101           Li  tau( 101) = (   0.5926583   0.0873080   0.8766270  )
       102           Li  tau( 102) = (   0.4613921   0.1809300   0.8766270  )
       103           Li  tau( 103) = (   0.4459477   0.0204373   0.8766270  )
       104           Li  tau( 104) = (   0.2446730   0.1949922   1.2877124  )
       105           Li  tau( 105) = (   0.3657451   0.0967446   1.2903131  )
       106           Li  tau( 106) = (   0.3848106   0.2698585   1.2807578  )
       107           Li  tau( 107) = (   0.4003275   0.0904568   1.0336250  )
       108           Li  tau( 108) = (   0.5548318   0.0127904   1.0336250  )
       109           Li  tau( 109) = (   0.5448406   0.1854282   1.0336250  )
       110           Li  tau( 110) = (   0.4390621   0.2044621   1.1100377  )
       111           Li  tau( 111) = (   0.2706352   0.2921611   1.1166650  )
       112           Li  tau( 112) = (   0.2923615   0.1113813   1.1270793  )
       113           Li  tau( 113) = (   0.3333333   0.0000000   0.9626942  )
       114           Li  tau( 114) = (   0.3314024   0.0072115   1.1954562  )
       115           Cr  tau( 115) = (   0.4994570   0.0914182   1.2114225  )
       116           Cr  tau( 116) = (   0.3333333   0.1924500   0.9478909  )
       117           N   tau( 117) = (   0.5949141   0.0800623   1.2397259  )
       118           N   tau( 118) = (   0.5037502   0.1002867   1.1040883  )
       119           N   tau( 119) = (   0.2363994   0.1982778   0.9168466  )
       120           N   tau( 120) = (   0.3767532   0.1055885   0.9168466  )
       121           N   tau( 121) = (   0.3868473   0.2734837   0.9168466  )
       122           N   tau( 122) = (   0.4422080   0.0053527   1.2371427  )
       123           N   tau( 123) = (   0.4660979   0.1814285   1.2574220  )
       124           N   tau( 124) = (   0.3333333   0.1924500   1.0497374  )
       125           O   tau( 125) = (   0.3365131   0.0116719   1.0873038  )
       126           Li  tau( 126) = (   0.5841018   0.0780718   1.3823005  )
       127           Li  tau( 127) = (   0.4663322   0.1796495   1.3696946  )
       128           Li  tau( 128) = (   0.4478284   0.0125172   1.3943395  )
       129           Li  tau( 129) = (   0.2360721   0.1785379   1.7784657  )
       130           Li  tau( 130) = (   0.3611276   0.0873021   1.7839417  )
       131           Li  tau( 131) = (   0.3898120   0.2730255   1.7768235  )
       132           Li  tau( 132) = (   0.4101644   0.0843257   1.5447336  )
       133           Li  tau( 133) = (   0.1262062   0.5632825   1.6172306  )
       134           Li  tau( 134) = (   0.5460322   0.1846504   1.5383868  )
       135           Li  tau( 135) = (   0.4299066   0.1948888   1.6127423  )
       136           Li  tau( 136) = (   0.2894312   0.2780649   1.6306723  )
       137           Li  tau( 137) = (   0.2917859   0.1006344   1.6073481  )
       138           Li  tau( 138) = (  -0.0008927   0.5797870   1.4536637  )
       139           Li  tau( 139) = (  -0.0047819   0.5627343   1.6867705  )
       140           Cr  tau( 140) = (   0.4907691   0.0924713   1.7076635  )
       141           Cr  tau( 141) = (   0.3273810   0.1908575   1.4409351  )
       142           N   tau( 142) = (   0.5903966   0.0888403   1.7504312  )
       143           N   tau( 143) = (   0.4966746   0.1021522   1.6028656  )
       144           N   tau( 144) = (   0.2348437   0.2044078   1.4030298  )
       145           N   tau( 145) = (   0.3602569   0.0967253   1.4174883  )
       146           N   tau( 146) = (   0.3832373   0.2673671   1.3985765  )
       147           N   tau( 147) = (   0.4473965   0.0045154   1.7412441  )
       148           N   tau( 148) = (   0.4429549   0.1746597   1.7434941  )
       149           N   tau( 149) = (   0.3268217   0.1970061   1.5488362  )
       150           O   tau( 150) = (   0.3317057  -0.0057146   1.5790389  )
       151           Li  tau( 151) = (   0.4259940   0.3759836   0.8766270  )
       152           Li  tau( 152) = (   0.2947255   0.4696050   0.8766270  )
       153           Li  tau( 153) = (   0.2792811   0.3091127   0.8766270  )
       154           Li  tau( 154) = (   0.0819126   0.4810835   1.2693792  )
       155           Li  tau( 155) = (   0.2093362   0.4073779   1.2747968  )
       156           Li  tau( 156) = (   0.2153095   0.5598566   1.2930131  )
       157           Li  tau( 157) = (   0.2336608   0.3791318   1.0336250  )
       158           Li  tau( 158) = (   0.3881652   0.3014656   1.0336250  )
       159           Li  tau( 159) = (   0.3781739   0.4741032   1.0336250  )
       160           Li  tau( 160) = (   0.2826789   0.4941038   1.1139474  )
       161           Li  tau( 161) = (   0.1015987   0.5599431   1.1280436  )
       162           Li  tau( 162) = (   0.1135968   0.3899412   1.1201948  )
       163           Li  tau( 163) = (   0.1666667   0.2886750   0.9626942  )
       164           Li  tau( 164) = (   0.1658713   0.2986341   1.2256063  )
       165           Cr  tau( 165) = (   0.3325064   0.3931380   1.2069458  )
       166           Cr  tau( 166) = (   0.1666667   0.4811250   0.9478909  )
       167           N   tau( 167) = (   0.4327235   0.3789086   1.2379609  )
       168           N   tau( 168) = (   0.3404796   0.3842560   1.1021013  )
       169           N   tau( 169) = (   0.0697328   0.4869528   0.9168466  )
       170           N   tau( 170) = (   0.2100866   0.3942641   0.9168466  )
       171           N   tau( 171) = (   0.2201806   0.5621587   0.9168466  )
       172           N   tau( 172) = (   0.2753450   0.3152345   1.2460259  )
       173           N   tau( 173) = (   0.2844923   0.4695816   1.2458681  )
       174           N   tau( 174) = (   0.1666667   0.4811250   1.0497374  )
       175           O   tau( 175) = (   0.1684859   0.2927899   1.0769187  )
       176           Li  tau( 176) = (   0.4413384   0.3931099   1.3588302  )
       177           Li  tau( 177) = (   0.2961141   0.4755701   1.4025038  )
       178           Li  tau( 178) = (   0.2804061   0.3319202   1.3787589  )
       179           Li  tau( 179) = (   0.0897987   0.4887698   1.7610676  )
       180           Li  tau( 180) = (   0.2111917   0.3852811   1.7704943  )
       181           Li  tau( 181) = (   0.2100977   0.5624181   1.7663566  )
       182           Li  tau( 182) = (   0.2389177   0.3597771   1.5315725  )
       183           Li  tau( 183) = (   0.3869735   0.3046588   1.5362011  )
       184           Li  tau( 184) = (   0.3813123   0.4904570   1.5424894  )
       185           Li  tau( 185) = (   0.2581707   0.4786372   1.6226891  )
       186           Li  tau( 186) = (   0.0391354   0.4797984   1.5538680  )
       187           Li  tau( 187) = (   0.1035127   0.3807629   1.6105566  )
       188           Li  tau( 188) = (   0.1600002   0.2883548   1.4457741  )
       189           Li  tau( 189) = (   0.1690832   0.2849155   1.7058868  )
       190           Cr  tau( 190) = (   0.3417367   0.3864762   1.7100187  )
       191           Cr  tau( 191) = (   0.1583305   0.4710374   1.4540845  )
       192           N   tau( 192) = (   0.4357362   0.3748819   1.7474974  )
       193           N   tau( 193) = (   0.3354022   0.3721819   1.6108371  )
       194           N   tau( 194) = (   0.0717852   0.4867045   1.4108551  )
       195           N   tau( 195) = (   0.1996354   0.3855908   1.4160740  )
       196           N   tau( 196) = (   0.2145989   0.5560223   1.4235896  )
       197           N   tau( 197) = (   0.2812354   0.3035572   1.7449552  )
       198           N   tau( 198) = (   0.2728203   0.4704863   1.7364052  )
       199           N   tau( 199) = (   0.1577385   0.4773462   1.5520213  )
       200           O   tau( 200) = (   0.1598214   0.2934000   1.5883078  )
       201           Li  tau( 201) = (   0.9259927   0.0873080   0.8766270  )
       202           Li  tau( 202) = (   0.7947266   0.1809300   0.8766270  )
       203           Li  tau( 203) = (   0.7792805   0.0204373   0.8766270  )
       204           Li  tau( 204) = (   0.5809033   0.1850472   1.2837734  )
       205           Li  tau( 205) = (   0.7019853   0.0941340   1.2689760  )
       206           Li  tau( 206) = (   0.7278634   0.2671369   1.2889046  )
       207           Li  tau( 207) = (   0.7336608   0.0904568   1.0336250  )
       208           Li  tau( 208) = (   0.8881634   0.0127904   1.0336250  )
       209           Li  tau( 209) = (   0.8781757   0.1854282   1.0336250  )
       210           Li  tau( 210) = (   0.7592232   0.1980464   1.1251449  )
       211           Li  tau( 211) = (   0.6144571   0.2730851   1.1226377  )
       212           Li  tau( 212) = (   0.6173908   0.1101990   1.1080506  )
       213           Li  tau( 213) = (   0.6666690   0.0000000   0.9626942  )
       214           Li  tau( 214) = (   0.6583994  -0.0057262   1.1964672  )
       215           Cr  tau( 215) = (   0.8346774   0.0880291   1.2048361  )
       216           Cr  tau( 216) = (   0.6666690   0.1924500   0.9478909  )
       217           N   tau( 217) = (   0.9263668   0.0759521   1.2452311  )
       218           N   tau( 218) = (   0.8380086   0.0898350   1.1004941  )
       219           N   tau( 219) = (   0.5697327   0.1982778   0.9168466  )
       220           N   tau( 220) = (   0.7100854   0.1055885   0.9168466  )
       221           N   tau( 221) = (   0.7201783   0.2734837   0.9168466  )
       222           N   tau( 222) = (   0.7810922   0.0071699   1.2384694  )
       223           N   tau( 223) = (   0.7986831   0.1812970   1.2329174  )
       224           N   tau( 224) = (   0.6666690   0.1924500   1.0497374  )
       225           O   tau( 225) = (   0.6653832  -0.0002829   1.0858194  )
       226           Li  tau( 226) = (   0.9181908   0.0813200   1.3708283  )
       227           Li  tau( 227) = (   0.7923714   0.1779956   1.3648614  )
       228           Li  tau( 228) = (   0.7686207   0.0227645   1.4012298  )
       229           Li  tau( 229) = (   0.5506427   0.1911713   1.7916210  )
       230           Li  tau( 230) = (   0.7077068   0.0946436   1.7964833  )
       231           Li  tau( 231) = (   0.7116399   0.2506072   1.7775832  )
       232           Li  tau( 232) = (   0.7092087   0.0707339   1.5535174  )
       233           Li  tau( 233) = (   0.8885725   0.0025830   1.5344478  )
       234           Li  tau( 234) = (   0.8746107   0.1748970   1.5093471  )
       235           Li  tau( 235) = (   0.7905364   0.1964024   1.6246002  )
       236           Li  tau( 236) = (   0.6089402   0.2805656   1.6148112  )
       237           Li  tau( 237) = (   0.6182792   0.1298787   1.6458847  )
       238           Li  tau( 238) = (   0.5792020   0.0105014   1.5339686  )
       239           Li  tau( 239) = (   0.6604508  -0.0039041   1.6918199  )
       240           Cr  tau( 240) = (   0.8258936   0.0880128   1.7200415  )
       241           Cr  tau( 241) = (   0.6690008   0.1859221   1.4531611  )
       242           N   tau( 242) = (   0.9208090   0.0677972   1.7581338  )
       243           N   tau( 243) = (   0.8276352   0.0874809   1.6183703  )
       244           N   tau( 244) = (   0.5706561   0.1804472   1.4144668  )
       245           N   tau( 245) = (   0.7014711   0.1073149   1.4074363  )
       246           N   tau( 246) = (   0.7133172   0.2737203   1.4147064  )
       247           N   tau( 247) = (   0.7736700   0.0106181   1.7489994  )
       248           N   tau( 248) = (   0.7891513   0.1757923   1.7553929  )
       249           N   tau( 249) = (   0.6692579   0.1935148   1.5535934  )
       250           O   tau( 250) = (   0.3247207   0.5666295   1.5865955  )
       251           Li  tau( 251) = (   0.7593284   0.3759836   0.8766270  )
       252           Li  tau( 252) = (   0.6280565   0.4696050   0.8766270  )
       253           Li  tau( 253) = (   0.6126161   0.3091127   0.8766270  )
       254           Li  tau( 254) = (   0.4107745   0.4922003   1.2971040  )
       255           Li  tau( 255) = (   0.5420471   0.4038574   1.2634298  )
       256           Li  tau( 256) = (   0.5497281   0.5450469   1.2782448  )
       257           Li  tau( 257) = (   0.5669941   0.3791318   1.0336250  )
       258           Li  tau( 258) = (   0.7214991   0.3014656   1.0336250  )
       259           Li  tau( 259) = (   0.7115055   0.4741032   1.0336250  )
       260           Li  tau( 260) = (   0.5984499   0.4947151   1.1009090  )
       261           Li  tau( 261) = (   0.4502005   0.5464548   1.1382709  )
       262           Li  tau( 262) = (   0.4631004   0.3914256   1.1327131  )
       263           Li  tau( 263) = (   0.5000000   0.2886750   0.9626942  )
       264           Li  tau( 264) = (   0.5073601   0.2861386   1.2075303  )
       265           Cr  tau( 265) = (   0.6746872   0.3808599   1.2154082  )
       266           Cr  tau( 266) = (   0.5000000   0.4811250   0.9478909  )
       267           N   tau( 267) = (   0.7709525   0.3693598   1.2512447  )
       268           N   tau( 268) = (   0.6779015   0.3855832   1.1154026  )
       269           N   tau( 269) = (   0.4030661   0.4869528   0.9168466  )
       270           N   tau( 270) = (   0.5434199   0.3942641   0.9168466  )
       271           N   tau( 271) = (   0.5535140   0.5621587   0.9168466  )
       272           N   tau( 272) = (   0.6202136   0.3028805   1.2465694  )
       273           N   tau( 273) = (   0.6280915   0.4656023   1.2468382  )
       274           N   tau( 274) = (   0.5000000   0.4811250   1.0497374  )
       275           O   tau( 275) = (   0.4987142   0.2897486   1.0787655  )
       276           Li  tau( 276) = (   0.7686967   0.3671594   1.3717809  )
       277           Li  tau( 277) = (   0.6305870   0.4758618   1.3644231  )
       278           Li  tau( 278) = (   0.6153162   0.3157645   1.3582633  )
       279           Li  tau( 279) = (   0.4192667   0.4824622   1.7714469  )
       280           Li  tau( 280) = (   0.5406638   0.3899774   1.7855021  )
       281           Li  tau( 281) = (   0.5477446   0.5555951   1.8027600  )
       282           Li  tau( 282) = (   0.5552105   0.3909587   1.5466213  )
       283           Li  tau( 283) = (   0.7241406   0.3000706   1.5333258  )
       284           Li  tau( 284) = (   0.7174724   0.4470260   1.5232153  )
       285           Li  tau( 285) = (   0.5942187   0.4935164   1.6301463  )
       286           Li  tau( 286) = (   0.4385852   0.5569404   1.6340736  )
       287           Li  tau( 287) = (   0.4579020   0.3886794   1.6284807  )
       288           Li  tau( 288) = (   0.5097568   0.2830038   1.4497364  )
       289           Li  tau( 289) = (   0.4996049   0.2696253   1.6930297  )
       290           Cr  tau( 290) = (   0.6643547   0.3819756   1.7158220  )
       291           Cr  tau( 291) = (   0.4998971   0.4810479   1.4558787  )
       292           N   tau( 292) = (   0.7629752   0.3721223   1.7491104  )
       293           N   tau( 293) = (   0.6679488   0.3874171   1.6204742  )
       294           N   tau( 294) = (   0.4030485   0.4830817   1.4216902  )
       295           N   tau( 295) = (   0.5504610   0.3959817   1.4110538  )
       296           N   tau( 296) = (   0.5454437   0.5559966   1.4127662  )
       297           N   tau( 297) = (   0.6062752   0.3035888   1.7446513  )
       298           N   tau( 298) = (   0.6196058   0.4655620   1.7450838  )
       299           N   tau( 299) = (   0.4919601   0.4778984   1.5575616  )
       300           O   tau( 300) = (   0.5019519   0.2848406   1.5803948  )

   Crystallographic axes

     site n.     atom                  positions (cryst. coord.)
         1           Li  tau(   1) = (  0.3097346  0.1512218  0.3321863  )
         2           Li  tau(   2) = (  0.2325188  0.3133799  0.3321863  )
         3           Li  tau(   3) = (  0.1244139  0.0353984  0.3321863  )
         4           Li  tau(   4) = (  0.0249068  0.3220801  0.4820045  )
         5           Li  tau(   5) = (  0.0878027  0.1765147  0.4793559  )
         6           Li  tau(   6) = (  0.1804789  0.4244491  0.4911153  )
         7           Li  tau(   7) = (  0.1192194  0.1566758  0.3916786  )
         8           Li  tau(   8) = (  0.2288830  0.0221536  0.3916786  )
         9           Li  tau(   9) = (  0.3185643  0.3211711  0.3916786  )
        10           Li  tau(  10) = (  0.2009994  0.3281161  0.4292378  )
        11           Li  tau(  11) = (  0.1011100  0.4712450  0.4227159  )
        12           Li  tau(  12) = ( -0.0088760  0.1381781  0.4237368  )
        13           Li  tau(  13) = (  0.0000000  0.0000000  0.3648003  )
        14           Li  tau(  14) = (  0.9946624  0.9966389  0.4600492  )
        15           Cr  tau(  15) = (  0.2189104  0.1711255  0.4573983  )
        16           Cr  tau(  16) = (  0.1111111  0.3333332  0.3591908  )
        17           N   tau(  17) = (  0.3062832  0.1490485  0.4714078  )
        18           N   tau(  18) = (  0.2270718  0.1797286  0.4173788  )
        19           N   tau(  19) = (  0.0175419  0.3434273  0.3474270  )
        20           N   tau(  20) = (  0.1043816  0.1828847  0.3474270  )
        21           N   tau(  21) = (  0.2114100  0.4736876  0.3474270  )
        22           N   tau(  22) = (  0.1206448  0.0465538  0.4706969  )
        23           N   tau(  23) = (  0.2410419  0.3263204  0.4707633  )
        24           N   tau(  24) = (  0.1111111  0.3333332  0.3977842  )
        25           O   tau(  25) = ( -0.0016200  1.0016445  0.4080975  )
        26           Li  tau(  26) = (  0.2959647  0.1320945  0.5206688  )
        27           Li  tau(  27) = (  0.2374637  0.3032676  0.5166847  )
        28           Li  tau(  28) = (  0.1212953  0.0307009  0.5186535  )
        29           Li  tau(  29) = ( -0.0066374  0.3281910  0.6812897  )
        30           Li  tau(  30) = (  0.1096834  0.1707662  0.6773433  )
        31           Li  tau(  31) = (  0.2017202  0.4634194  0.6703142  )
        32           Li  tau(  32) = (  0.1179067  0.1546715  0.5792908  )
        33           Li  tau(  33) = (  0.2260038  0.0425376  0.5744896  )
        34           Li  tau(  34) = (  0.3229969  0.3467697  0.5774815  )
        35           Li  tau(  35) = (  0.2177748  0.3354751  0.6082397  )
        36           Li  tau(  36) = (  0.0835932  0.4539398  0.6091233  )
        37           Li  tau(  37) = (  0.9894148  0.1359856  0.6183492  )
        38           Li  tau(  38) = (  0.9919475  0.9726448  0.5572978  )
        39           Li  tau(  39) = (  0.9848517  0.9650327  0.6450238  )
        40           Cr  tau(  40) = (  0.2236309  0.1579573  0.6431060  )
        41           Cr  tau(  41) = (  0.1093381  0.3337776  0.5451708  )
        42           N   tau(  42) = (  0.3124399  0.1285770  0.6550248  )
        43           N   tau(  43) = (  0.2116696  0.1553973  0.6035913  )
        44           N   tau(  44) = (  0.0229496  0.3419322  0.5304195  )
        45           N   tau(  45) = (  0.1055586  0.1925931  0.5303996  )
        46           N   tau(  46) = (  0.2120625  0.4955247  0.5350037  )
        47           N   tau(  47) = (  0.1331855  0.0252158  0.6648797  )
        48           N   tau(  48) = (  0.2310922  0.3014192  0.6579237  )
        49           N   tau(  49) = (  0.1058098  0.3130813  0.5826547  )
        50           O   tau(  50) = (  0.9873383  0.9918308  0.5995763  )
        51           Li  tau(  51) = (  0.3097348  0.6512226  0.3321863  )
        52           Li  tau(  52) = (  0.2325186  0.8133797  0.3321863  )
        53           Li  tau(  53) = (  0.1244139  0.5353989  0.3321863  )
        54           Li  tau(  54) = (  0.0274083  0.8265024  0.4842988  )
        55           Li  tau(  55) = (  0.0996487  0.6551916  0.4823035  )
        56           Li  tau(  56) = (  0.1843047  0.9470087  0.4789860  )
        57           Li  tau(  57) = (  0.1192194  0.6566756  0.3916786  )
        58           Li  tau(  58) = (  0.2288831  0.5221537  0.3916786  )
        59           Li  tau(  59) = (  0.3185642  0.8211709  0.3916786  )
        60           Li  tau(  60) = (  0.2325099  0.8764494  0.4222553  )
        61           Li  tau(  61) = (  0.0975506  1.0010260  0.4248375  )
        62           Li  tau(  62) = (  0.0178844  0.6639171  0.4287883  )
        63           Li  tau(  63) = ( -0.0000001  0.4999998  0.3648003  )
        64           Li  tau(  64) = ( -0.0043640  0.4914069  0.4549667  )
        65           Cr  tau(  65) = (  0.2167242  0.6651824  0.4544175  )
        66           Cr  tau(  66) = (  0.1111110  0.8333330  0.3591908  )
        67           N   tau(  67) = (  0.3088760  0.6570967  0.4707522  )
        68           N   tau(  68) = (  0.2240144  0.6705078  0.4180099  )
        69           N   tau(  69) = (  0.0175418  0.8434271  0.3474270  )
        70           N   tau(  70) = (  0.1043818  0.6828855  0.3474270  )
        71           N   tau(  71) = (  0.2114098  0.9736874  0.3474270  )
        72           N   tau(  72) = (  0.1201548  0.5121609  0.4658071  )
        73           N   tau(  73) = (  0.2073839  0.8063274  0.4643942  )
        74           N   tau(  74) = (  0.1111110  0.8333330  0.3977842  )
        75           O   tau(  75) = (  1.0012999  0.4980441  0.4105867  )
        76           Li  tau(  76) = (  0.3106652  0.6248061  0.5149950  )
        77           Li  tau(  77) = (  0.2397576  0.8387019  0.5096446  )
        78           Li  tau(  78) = (  0.1280267  0.5405492  0.5205602  )
        79           Li  tau(  79) = (  0.0243980  0.8329544  0.6822552  )
        80           Li  tau(  80) = (  0.1122023  0.6735719  0.6791083  )
        81           Li  tau(  81) = (  0.2220453  0.9714108  0.6743027  )
        82           Li  tau(  82) = (  0.0995171  0.6263589  0.5880893  )
        83           Li  tau(  83) = (  0.2327147  0.5048778  0.5811510  )
        84           Li  tau(  84) = (  0.2450617  0.6951671  0.5484395  )
        85           Li  tau(  85) = (  0.1995427  0.8616757  0.6083017  )
        86           Li  tau(  86) = (  0.1064371  0.9709432  0.6107510  )
        87           Li  tau(  87) = (  0.0129163  0.6908701  0.6200500  )
        88           Li  tau(  88) = (  0.9985130  0.4923483  0.5505500  )
        89           Li  tau(  89) = (  0.9819374  0.4933605  0.6508348  )
        90           Cr  tau(  90) = (  0.2012949  0.6419677  0.6447669  )
        91           Cr  tau(  91) = (  0.1111245  0.8301738  0.5446681  )
        92           N   tau(  92) = (  0.3011949  0.6265847  0.6594185  )
        93           N   tau(  93) = (  0.2056088  0.6576149  0.6042092  )
        94           N   tau(  94) = (  0.0268198  0.8526870  0.5301316  )
        95           N   tau(  95) = (  0.1137715  0.6869983  0.5308137  )
        96           N   tau(  96) = (  0.2130272  0.9732885  0.5368905  )
        97           N   tau(  97) = (  0.1061447  0.4953040  0.6587630  )
        98           N   tau(  98) = (  0.2187443  0.7979086  0.6584131  )
        99           N   tau(  99) = (  0.1040534  0.8464101  0.5812130  )
       100           O   tau( 100) = (  0.9992172  0.4802945  0.5953464  )
       101           Li  tau( 101) = (  0.6430655  0.1512218  0.3321863  )
       102           Li  tau( 102) = (  0.5658521  0.3133799  0.3321863  )
       103           Li  tau( 103) = (  0.4577472  0.0353984  0.3321863  )
       104           Li  tau( 104) = (  0.3572518  0.3377364  0.4879617  )
       105           Li  tau( 105) = (  0.4216006  0.1675665  0.4889472  )
       106           Li  tau( 106) = (  0.5406135  0.4674086  0.4853264  )
       107           Li  tau( 107) = (  0.4525527  0.1566758  0.3916786  )
       108           Li  tau( 108) = (  0.5622164  0.0221536  0.3916786  )
       109           Li  tau( 109) = (  0.6518976  0.3211711  0.3916786  )
       110           Li  tau( 110) = (  0.5571084  0.3541388  0.4206342  )
       111           Li  tau( 111) = (  0.4393145  0.5060378  0.4231455  )
       112           Li  tau( 112) = (  0.3566675  0.1929181  0.4270919  )
       113           Li  tau( 113) = (  0.3333333  0.0000000  0.3648003  )
       114           Li  tau( 114) = (  0.3355660  0.0124908  0.4530024  )
       115           Cr  tau( 115) = (  0.5522373  0.1583409  0.4590526  )
       116           Cr  tau( 116) = (  0.4444444  0.3333332  0.3591908  )
       117           N   tau( 117) = (  0.6411381  0.1386720  0.4697778  )
       118           N   tau( 118) = (  0.5616507  0.1737017  0.4183797  )
       119           N   tau( 119) = (  0.3508752  0.3434273  0.3474270  )
       120           N   tau( 120) = (  0.4377148  0.1828847  0.3474270  )
       121           N   tau( 121) = (  0.5447432  0.4736876  0.3474270  )
       122           N   tau( 122) = (  0.4452984  0.0092712  0.4687990  )
       123           N   tau( 123) = (  0.5708457  0.3142433  0.4764836  )
       124           N   tau( 124) = (  0.4444444  0.3333332  0.3977842  )
       125           O   tau( 125) = (  0.3432519  0.0202164  0.4120195  )
       126           Li  tau( 126) = (  0.6291766  0.1352243  0.5238046  )
       127           Li  tau( 127) = (  0.5700529  0.3111621  0.5190278  )
       128           Li  tau( 128) = (  0.4550552  0.0216804  0.5283666  )
       129           Li  tau( 129) = (  0.3391511  0.3092368  0.6739262  )
       130           Li  tau( 130) = (  0.4115315  0.1512117  0.6760013  )
       131           Li  tau( 131) = (  0.5474434  0.4728940  0.6733039  )
       132           Li  tau( 132) = (  0.4588499  0.1460563  0.5853565  )
       133           Li  tau( 133) = (  0.4514175  0.9756339  0.6128283  )
       134           Li  tau( 134) = (  0.6526402  0.3198238  0.5829515  )
       135           Li  tau( 135) = (  0.5424257  0.3375573  0.6111275  )
       136           Li  tau( 136) = (  0.4499721  0.4816225  0.6179218  )
       137           Li  tau( 137) = (  0.3498872  0.1743040  0.6090835  )
       138           Li  tau( 138) = (  0.3338475  1.0042206  0.5508468  )
       139           Li  tau( 139) = (  0.3201129  0.9746844  0.6391795  )
       140           Cr  tau( 140) = (  0.5441574  0.1601650  0.6470966  )
       141           Cr  tau( 141) = (  0.4375726  0.3305748  0.5460234  )
       142           N   tau( 142) = (  0.6416885  0.1538759  0.6633029  )
       143           N   tau( 143) = (  0.5556522  0.1769328  0.6073849  )
       144           N   tau( 144) = (  0.3528586  0.3540447  0.5316597  )
       145           N   tau( 145) = (  0.4161012  0.1675331  0.5371386  )
       146           N   tau( 146) = (  0.5376018  0.4630935  0.5299722  )
       147           N   tau( 147) = (  0.4500035  0.0078208  0.6598216  )
       148           N   tau( 148) = (  0.5437948  0.3025195  0.6606742  )
       149           N   tau( 149) = (  0.4405633  0.3412246  0.5869111  )
       150           O   tau( 150) = (  0.3284064 -0.0098980  0.5983561  )
       151           Li  tau( 151) = (  0.6430682  0.6512226  0.3321863  )
       152           Li  tau( 152) = (  0.5658520  0.8133797  0.3321863  )
       153           Li  tau( 153) = (  0.4577474  0.5353989  0.3321863  )
       154           Li  tau( 154) = (  0.3596663  0.8332611  0.4810146  )
       155           Li  tau( 155) = (  0.4445359  0.7055992  0.4830675  )
       156           Li  tau( 156) = (  0.5385429  0.9697001  0.4899703  )
       157           Li  tau( 157) = (  0.4525527  0.6566756  0.3916786  )
       158           Li  tau( 158) = (  0.5622164  0.5221537  0.3916786  )
       159           Li  tau( 159) = (  0.6518976  0.8211709  0.3916786  )
       160           Li  tau( 160) = (  0.5679498  0.8558128  0.4221157  )
       161           Li  tau( 161) = (  0.4248820  0.9698500  0.4274573  )
       162           Li  tau( 162) = (  0.3387295  0.6753980  0.4244831  )
       163           Li  tau( 163) = (  0.3333333  0.4999998  0.3648003  )
       164           Li  tau( 164) = (  0.3382877  0.5172494  0.4644274  )
       165           Cr  tau( 165) = (  0.5594847  0.6809349  0.4573563  )
       166           Cr  tau( 166) = (  0.4444443  0.8333330  0.3591908  )
       167           N   tau( 167) = (  0.6514865  0.6562889  0.4691090  )
       168           N   tau( 168) = (  0.5623299  0.6655509  0.4176268  )
       169           N   tau( 169) = (  0.3508751  0.8434271  0.3474270  )
       170           N   tau( 170) = (  0.4377151  0.6828855  0.3474270  )
       171           N   tau( 171) = (  0.5447431  0.9736874  0.3474270  )
       172           N   tau( 172) = (  0.4573457  0.5460021  0.4721651  )
       173           N   tau( 173) = (  0.5556054  0.8133392  0.4721053  )
       174           N   tau( 174) = (  0.4444443  0.8333330  0.3977842  )
       175           O   tau( 175) = (  0.3375283  0.5071270  0.4080842  )
       176           Li  tau( 176) = (  0.6683005  0.6808864  0.5149109  )
       177           Li  tau( 177) = (  0.5706846  0.8237116  0.5314604  )
       178           Li  tau( 178) = (  0.4720403  0.5749026  0.5224626  )
       179           Li  tau( 179) = (  0.3719901  0.8465741  0.6673334  )
       180           Li  tau( 180) = (  0.4336338  0.6673264  0.6709055  )
       181           Li  tau( 181) = (  0.5348099  0.9741368  0.6693376  )
       182           Li  tau( 182) = (  0.4466350  0.6231521  0.5803693  )
       183           Li  tau( 183) = (  0.5628684  0.5276846  0.5821232  )
       184           Li  tau( 184) = (  0.6644778  0.8494965  0.5845061  )
       185           Li  tau( 185) = (  0.5345120  0.8290239  0.6148967  )
       186           Li  tau( 186) = (  0.3161471  0.8310352  0.5888179  )
       187           Li  tau( 187) = (  0.3233463  0.6595007  0.6102993  )
       188           Li  tau( 188) = (  0.3264819  0.4994451  0.5478571  )
       189           Li  tau( 189) = (  0.3335792  0.4934880  0.6464234  )
       190           Cr  tau( 190) = (  0.5648688  0.6693964  0.6479891  )
       191           Cr  tau( 191) = (  0.4302841  0.8158607  0.5510062  )
       192           N   tau( 192) = (  0.6521744  0.6493145  0.6621912  )
       193           N   tau( 193) = (  0.5502815  0.6446380  0.6104056  )
       194           N   tau( 194) = (  0.3527842  0.8429969  0.5346250  )
       195           N   tau( 195) = (  0.4222564  0.6678629  0.5366026  )
       196           N   tau( 196) = (  0.5356185  0.9630588  0.5394506  )
       197           N   tau( 197) = (  0.4564942  0.5257765  0.6612278  )
       198           N   tau( 198) = (  0.5444557  0.8149061  0.6579879  )
       199           N   tau( 199) = (  0.4333344  0.8267878  0.5881181  )
       200           O   tau( 200) = (  0.3292160  0.5081838  0.6018684  )
       201           Li  tau( 201) = (  0.9764000  0.1512218  0.3321863  )
       202           Li  tau( 202) = (  0.8991866  0.3133799  0.3321863  )
       203           Li  tau( 203) = (  0.7910799  0.0353984  0.3321863  )
       204           Li  tau( 204) = (  0.6877403  0.3205111  0.4864691  )
       205           Li  tau( 205) = (  0.7563336  0.1630448  0.4808618  )
       206           Li  tau( 206) = (  0.8820949  0.4626946  0.4884135  )
       207           Li  tau( 207) = (  0.7858861  0.1566758  0.3916786  )
       208           Li  tau( 208) = (  0.8955479  0.0221536  0.3916786  )
       209           Li  tau( 209) = (  0.9852327  0.3211711  0.3916786  )
       210           Li  tau( 210) = (  0.8735654  0.3430264  0.4263589  )
       211           Li  tau( 211) = (  0.7721228  0.4729972  0.4254088  )
       212           Li  tau( 212) = (  0.6810143  0.1908703  0.4198812  )
       213           Li  tau( 213) = (  0.6666690  0.0000000  0.3648003  )
       214           Li  tau( 214) = (  0.6550934 -0.0099181  0.4533855  )
       215           Cr  tau( 215) = (  0.8855011  0.1524709  0.4565568  )
       216           Cr  tau( 216) = (  0.7777800  0.3333332  0.3591908  )
       217           N   tau( 217) = (  0.9702178  0.1315529  0.4718640  )
       218           N   tau( 218) = (  0.8898749  0.1555987  0.4170178  )
       219           N   tau( 219) = (  0.6842085  0.3434273  0.3474270  )
       220           N   tau( 220) = (  0.7710469  0.1828847  0.3474270  )
       221           N   tau( 221) = (  0.8780741  0.4736876  0.3474270  )
       222           N   tau( 222) = (  0.7852317  0.0124186  0.4693017  )
       223           N   tau( 223) = (  0.9033550  0.3140156  0.4671978  )
       224           N   tau( 224) = (  0.7777800  0.3333332  0.3977842  )
       225           O   tau( 225) = (  0.6652199 -0.0004901  0.4114570  )
       226           Li  tau( 226) = (  0.9651409  0.1408504  0.5194574  )
       227           Li  tau( 227) = (  0.8951372  0.3082974  0.5171963  )
       228           Li  tau( 228) = (  0.7817638  0.0394293  0.5309776  )
       229           Li  tau( 229) = (  0.6610155  0.3311184  0.6789112  )
       230           Li  tau( 230) = (  0.7623493  0.1639275  0.6807538  )
       231           Li  tau( 231) = (  0.8563281  0.4340644  0.6735918  )
       232           Li  tau( 232) = (  0.7500470  0.1225146  0.5886850  )
       233           Li  tau( 233) = (  0.8900637  0.0044738  0.5814588  )
       234           Li  tau( 234) = (  0.9755876  0.3029305  0.5719472  )
       235           Li  tau( 235) = (  0.9039293  0.3401790  0.6156209  )
       236           Li  tau( 236) = (  0.7709248  0.4859539  0.6119115  )
       237           Li  tau( 237) = (  0.6932647  0.2249565  0.6236864  )
       238           Li  tau( 238) = (  0.5852650  0.0181890  0.5812773  )
       239           Li  tau( 239) = (  0.6581967 -0.0067622  0.6410929  )
       240           Cr  tau( 240) = (  0.8767078  0.1524426  0.6517871  )
       241           Cr  tau( 241) = (  0.7763429  0.3220265  0.5506563  )
       242           N   tau( 242) = (  0.9599517  0.1174281  0.6662217  )
       243           N   tau( 243) = (  0.8781423  0.1515214  0.6132601  )
       244           N   tau( 244) = (  0.6748374  0.3125438  0.5359936  )
       245           N   tau( 245) = (  0.7634293  0.1858749  0.5333295  )
       246           N   tau( 246) = (  0.8713497  0.4740975  0.5360844  )
       247           N   tau( 247) = (  0.7798004  0.0183911  0.6627603  )
       248           N   tau( 248) = (  0.8906450  0.3044813  0.6651831  )
       249           N   tau( 249) = (  0.7809838  0.3351775  0.5887138  )
       250           O   tau( 250) = (  0.6518644  0.9814310  0.6012195  )
       251           Li  tau( 251) = (  0.9764026  0.6512226  0.3321863  )
       252           Li  tau( 252) = (  0.8991830  0.8133797  0.3321863  )
       253           Li  tau( 253) = (  0.7910824  0.5353989  0.3321863  )
       254           Li  tau( 254) = (  0.6949465  0.8525160  0.4915205  )
       255           Li  tau( 255) = (  0.7752142  0.6995015  0.4787601  )
       256           Li  tau( 256) = (  0.8644111  0.9440489  0.4843741  )
       257           Li  tau( 257) = (  0.7858860  0.6566756  0.3916786  )
       258           Li  tau( 258) = (  0.8955503  0.5221537  0.3916786  )
       259           Li  tau( 259) = (  0.9852291  0.8211709  0.3916786  )
       260           Li  tau( 260) = (  0.8840737  0.8568716  0.4171750  )
       261           Li  tau( 261) = (  0.7656964  0.9464874  0.4313328  )
       262           Li  tau( 262) = (  0.6890901  0.6779691  0.4292267  )
       263           Li  tau( 263) = (  0.6666666  0.4999998  0.3648003  )
       264           Li  tau( 264) = (  0.6725623  0.4956067  0.4575777  )
       265           Cr  tau( 265) = (  0.8945768  0.6596688  0.4605630  )
       266           Cr  tau( 266) = (  0.7777776  0.8333330  0.3591908  )
       267           N   tau( 267) = (  0.9842025  0.6397499  0.4741428  )
       268           N   tau( 268) = (  0.9005180  0.6678497  0.4226672  )
       269           N   tau( 269) = (  0.6842084  0.8434271  0.3474270  )
       270           N   tau( 270) = (  0.7710484  0.6828855  0.3474270  )
       271           N   tau( 271) = (  0.8780764  0.9736874  0.3474270  )
       272           N   tau( 272) = (  0.7950817  0.5246043  0.4723711  )
       273           N   tau( 273) = (  0.8969071  0.8064468  0.4724730  )
       274           N   tau( 274) = (  0.7777776  0.8333330  0.3977842  )
       275           O   tau( 275) = (  0.6660007  0.5018593  0.4087840  )
       276           Li  tau( 276) = (  0.9806762  0.6359388  0.5198184  )
       277           Li  tau( 277) = (  0.9053259  0.8242167  0.5170302  )
       278           Li  tau( 278) = (  0.7976229  0.5469202  0.5146961  )
       279           Li  tau( 279) = (  0.6978164  0.8356490  0.6712665  )
       280           Li  tau( 280) = (  0.7658173  0.6754607  0.6765926  )
       281           Li  tau( 281) = (  0.8685175  0.9623189  0.6831322  )
       282           Li  tau( 282) = (  0.7809306  0.6771603  0.5860718  )
       283           Li  tau( 283) = (  0.8973865  0.5197375  0.5810336  )
       284           Li  tau( 284) = (  0.9755630  0.7742717  0.5772024  )
       285           Li  tau( 285) = (  0.8791505  0.8547955  0.6177225  )
       286           Li  tau( 286) = (  0.7601349  0.9646491  0.6192107  )
       287           Li  tau( 287) = (  0.6823062  0.6732126  0.6170914  )
       288           Li  tau( 288) = (  0.6731492  0.4901770  0.5493586  )
       289           Li  tau( 289) = (  0.6552732  0.4670048  0.6415513  )
       290           Cr  tau( 290) = (  0.8848884  0.6616011  0.6501882  )
       291           Cr  tau( 291) = (  0.7776302  0.8331994  0.5516861  )
       292           N   tau( 292) = (  0.9778201  0.6445347  0.6628024  )
       293           N   tau( 293) = (  0.8916242  0.6710261  0.6140574  )
       294           N   tau( 294) = (  0.6819559  0.8367220  0.5387308  )
       295           N   tau( 295) = (  0.7790811  0.6858605  0.5347003  )
       296           N   tau( 296) = (  0.8664485  0.9630143  0.5353492  )
       297           N   tau( 297) = (  0.7815523  0.5258312  0.6611127  )
       298           N   tau( 298) = (  0.8883981  0.8063770  0.6612766  )
       299           N   tau( 299) = (  0.7678749  0.8277444  0.5902175  )
       300           O   tau( 300) = (  0.6664047  0.4933585  0.5988698  )

     number of k points=     1  Gaussian smearing, width (Ry)=  0.0147
                       cart. coord. in units 2pi/alat
        k(    1) = (   0.0000000   0.0000000   0.0000000), wk =   2.0000000

                       cryst. coord.
        k(    1) = (   0.0000000   0.0000000   0.0000000), wk =   2.0000000

     Dense  grid:  5457965 G-vectors     FFT dimensions: ( 240, 160, 640)

     Smooth grid:  2970742 G-vectors     FFT dimensions: ( 200, 135, 540)

     Dynamical RAM for                 wfc:    1182.84 MB

     Dynamical RAM for     wfc (w. buffer):    1182.84 MB

     Dynamical RAM for           str. fact:      83.28 MB

     Dynamical RAM for           local pot:       0.00 MB

     Dynamical RAM for          nlocal pot:    3977.76 MB

     Dynamical RAM for                qrad:       7.46 MB

     Dynamical RAM for          rho,v,vnew:     203.09 MB

     Dynamical RAM for               rhoin:      67.70 MB

     Dynamical RAM for            rho*nmix:     333.13 MB

     Dynamical RAM for           G-vectors:      83.74 MB

     Dynamical RAM for          h,s,v(r/c):      63.83 MB

     Dynamical RAM for          <psi|beta>:      17.89 MB

     Dynamical RAM for                 psi:    2365.69 MB

     Dynamical RAM for                hpsi:    2365.69 MB

     Dynamical RAM for                spsi:    2365.69 MB

     Dynamical RAM for      wfcinit/wfcrot:    4336.08 MB

     Dynamical RAM for           addusdens:    7370.47 MB

     Dynamical RAM for          addusforce:   14335.60 MB

     Dynamical RAM for         addusstress:    4184.93 MB

     Estimated static dynamical RAM per process >       5.81 GB

     Estimated max dynamical RAM per process >      20.13 GB

     Estimated total dynamical RAM >      80.52 GB

     Check: negative core charge=   -0.000002

     Initial potential from superposition of free atoms

     starting charge    1292.2742, renormalised to    1392.0000

     negative rho (up, down):  2.585E-02 0.000E+00
     Starting wfcs are 1512 randomized atomic wfcs
     Checking if some PAW data can be deallocated... 

     total cpu time spent up to now is       34.7 secs

     per-process dynamical memory:  1708.6 Mb

     Self-consistent Calculation
[tb_dev] Currently allocated     1.26E+02 Mbytes, locked:    0 /  11
[tb_pin] Currently allocated     0.00E+00 Mbytes, locked:    0 /   0

     iteration #  1     ecut=    90.00 Ry     beta= 0.20
     Davidson diagonalization with overlap

---- Real-time Memory Report at c_bands before calling an iterative solver
         10171 MiB given to the printing process from OS
          1746 MiB allocation reported by mallinfo(arena+hblkhd)
        465852 MiB available memory on the node where the printing process lives
     GPU memory used/free/total (MiB): 16367 / 48601 / 64969
------------------
     ethr =  1.00E-02,  avg # of iterations =  3.0

     negative rho (up, down):  4.223E-02 0.000E+00

     total cpu time spent up to now is       38.5 secs

     total energy              =   -9071.79895395 Ry
     estimated scf accuracy    <     236.65187148 Ry
[tb_dev] Currently allocated     2.41E+01 Mbytes, locked:    0 /   6
[tb_pin] Currently allocated     0.00E+00 Mbytes, locked:    0 /   0

     iteration #  2     ecut=    90.00 Ry     beta= 0.20
     Davidson diagonalization with overlap

---- Real-time Memory Report at c_bands before calling an iterative solver
         10502 MiB given to the printing process from OS
          2013 MiB allocation reported by mallinfo(arena+hblkhd)
        464883 MiB available memory on the node where the printing process lives
     GPU memory used/free/total (MiB): 31249 / 33719 / 64969
------------------
     ethr =  1.00E-02,  avg # of iterations =  4.0

     negative rho (up, down):  6.914E-02 0.000E+00

     total cpu time spent up to now is       42.2 secs

     total energy              =   -9064.64189973 Ry
     estimated scf accuracy    <      50.09227728 Ry
[tb_dev] Currently allocated     2.41E+01 Mbytes, locked:    0 /   6
[tb_pin] Currently allocated     0.00E+00 Mbytes, locked:    0 /   0

     iteration #  3     ecut=    90.00 Ry     beta= 0.20
     Davidson diagonalization with overlap

---- Real-time Memory Report at c_bands before calling an iterative solver
         10537 MiB given to the printing process from OS
         -2047 MiB allocation reported by mallinfo(arena+hblkhd)
        464754 MiB available memory on the node where the printing process lives
     GPU memory used/free/total (MiB): 31249 / 33719 / 64969
------------------
     ethr =  3.60E-03,  avg # of iterations =  7.0

     negative rho (up, down):  4.965E-02 0.000E+00

     total cpu time spent up to now is       47.7 secs

     total energy              =   -9094.97434369 Ry
     estimated scf accuracy    <     591.80135170 Ry
[tb_dev] Currently allocated     2.41E+01 Mbytes, locked:    0 /   6
[tb_pin] Currently allocated     0.00E+00 Mbytes, locked:    0 /   0

     iteration #  4     ecut=    90.00 Ry     beta= 0.20
     Davidson diagonalization with overlap

---- Real-time Memory Report at c_bands before calling an iterative solver
         10540 MiB given to the printing process from OS
         -2023 MiB allocation reported by mallinfo(arena+hblkhd)
        464515 MiB available memory on the node where the printing process lives
     GPU memory used/free/total (MiB): 31249 / 33719 / 64969
------------------
     ethr =  3.60E-03,  avg # of iterations =  2.0

     negative rho (up, down):  4.358E-02 0.000E+00

     total cpu time spent up to now is       51.2 secs

     total energy              =   -9091.05382891 Ry
     estimated scf accuracy    <     400.52112329 Ry
[tb_dev] Currently allocated     2.41E+01 Mbytes, locked:    0 /   6
[tb_pin] Currently allocated     0.00E+00 Mbytes, locked:    0 /   0

     iteration #  5     ecut=    90.00 Ry     beta= 0.20
     Davidson diagonalization with overlap

---- Real-time Memory Report at c_bands before calling an iterative solver
         10564 MiB given to the printing process from OS
         -2000 MiB allocation reported by mallinfo(arena+hblkhd)
        464515 MiB available memory on the node where the printing process lives
     GPU memory used/free/total (MiB): 31429 / 33539 / 64969
------------------
     ethr =  3.60E-03,  avg # of iterations =  2.0

     negative rho (up, down):  3.492E-02 0.000E+00

     total cpu time spent up to now is       54.6 secs

     total energy              =   -9091.18911015 Ry
     estimated scf accuracy    <      31.37007365 Ry
[tb_dev] Currently allocated     2.41E+01 Mbytes, locked:    0 /   6
[tb_pin] Currently allocated     0.00E+00 Mbytes, locked:    0 /   0

     iteration #  6     ecut=    90.00 Ry     beta= 0.20
     Davidson diagonalization with overlap

---- Real-time Memory Report at c_bands before calling an iterative solver
         10587 MiB given to the printing process from OS
         -1976 MiB allocation reported by mallinfo(arena+hblkhd)
        464326 MiB available memory on the node where the printing process lives
     GPU memory used/free/total (MiB): 31429 / 33539 / 64969
------------------
     ethr =  2.25E-03,  avg # of iterations =  2.0

     negative rho (up, down):  2.659E-02 0.000E+00

     total cpu time spent up to now is       58.1 secs

     total energy              =   -9105.60133948 Ry
     estimated scf accuracy    <      19.83885723 Ry
[tb_dev] Currently allocated     2.41E+01 Mbytes, locked:    0 /   6
[tb_pin] Currently allocated     0.00E+00 Mbytes, locked:    0 /   0

     iteration #  7     ecut=    90.00 Ry     beta= 0.20
     Davidson diagonalization with overlap

---- Real-time Memory Report at c_bands before calling an iterative solver
         10611 MiB given to the printing process from OS
         -1953 MiB allocation reported by mallinfo(arena+hblkhd)
        464185 MiB available memory on the node where the printing process lives
     GPU memory used/free/total (MiB): 31429 / 33539 / 64969
------------------
     ethr =  1.43E-03,  avg # of iterations =  8.0

     negative rho (up, down):  3.189E-02 0.000E+00

     total cpu time spent up to now is       62.5 secs

     total energy              =   -9091.25347144 Ry
     estimated scf accuracy    <      90.45630456 Ry
[tb_dev] Currently allocated     2.41E+01 Mbytes, locked:    0 /   6
[tb_pin] Currently allocated     0.00E+00 Mbytes, locked:    0 /   0

     iteration #  8     ecut=    90.00 Ry     beta= 0.20
     Davidson diagonalization with overlap

---- Real-time Memory Report at c_bands before calling an iterative solver
         10643 MiB given to the printing process from OS
         -1941 MiB allocation reported by mallinfo(arena+hblkhd)
        464253 MiB available memory on the node where the printing process lives
     GPU memory used/free/total (MiB): 31429 / 33539 / 64969
------------------
     ethr =  1.43E-03,  avg # of iterations =  7.0

     negative rho (up, down):  3.482E-02 0.000E+00

     total cpu time spent up to now is       66.9 secs

     total energy              =   -9095.07988893 Ry
     estimated scf accuracy    <       6.73531353 Ry
[tb_dev] Currently allocated     2.41E+01 Mbytes, locked:    0 /   6
[tb_pin] Currently allocated     0.00E+00 Mbytes, locked:    0 /   0

     iteration #  9     ecut=    90.00 Ry     beta= 0.20
     Davidson diagonalization with overlap

---- Real-time Memory Report at c_bands before calling an iterative solver
         10678 MiB given to the printing process from OS
         -1906 MiB allocation reported by mallinfo(arena+hblkhd)
        463982 MiB available memory on the node where the printing process lives
     GPU memory used/free/total (MiB): 31431 / 33537 / 64969
------------------
     ethr =  4.84E-04,  avg # of iterations =  2.0

     negative rho (up, down):  3.428E-02 0.000E+00

     total cpu time spent up to now is       70.6 secs

     total energy              =   -9096.00030991 Ry
     estimated scf accuracy    <       2.55358329 Ry
[tb_dev] Currently allocated     2.41E+01 Mbytes, locked:    0 /   6
[tb_pin] Currently allocated     0.00E+00 Mbytes, locked:    0 /   0

     iteration # 10     ecut=    90.00 Ry     beta= 0.20
     Davidson diagonalization with overlap

---- Real-time Memory Report at c_bands before calling an iterative solver
         10704 MiB given to the printing process from OS
         -1881 MiB allocation reported by mallinfo(arena+hblkhd)
        463835 MiB available memory on the node where the printing process lives
     GPU memory used/free/total (MiB): 31651 / 33317 / 64969
------------------
     ethr =  1.83E-04,  avg # of iterations =  4.0

     negative rho (up, down):  3.429E-02 0.000E+00

     total cpu time spent up to now is       74.3 secs

     total energy              =   -9096.05663784 Ry
     estimated scf accuracy    <       0.66490903 Ry
[tb_dev] Currently allocated     2.41E+01 Mbytes, locked:    0 /   6
[tb_pin] Currently allocated     0.00E+00 Mbytes, locked:    0 /   0

     iteration # 11     ecut=    90.00 Ry     beta= 0.20
     Davidson diagonalization with overlap

---- Real-time Memory Report at c_bands before calling an iterative solver
         10704 MiB given to the printing process from OS
         -1881 MiB allocation reported by mallinfo(arena+hblkhd)
        463882 MiB available memory on the node where the printing process lives
     GPU memory used/free/total (MiB): 31651 / 33317 / 64969
------------------
     ethr =  4.78E-05,  avg # of iterations = 19.0

     negative rho (up, down):  3.487E-02 0.000E+00

     total cpu time spent up to now is       79.2 secs

     total energy              =   -9096.09486072 Ry
     estimated scf accuracy    <       0.32007687 Ry
[tb_dev] Currently allocated     2.41E+01 Mbytes, locked:    0 /   6
[tb_pin] Currently allocated     0.00E+00 Mbytes, locked:    0 /   0

     iteration # 12     ecut=    90.00 Ry     beta= 0.20
     Davidson diagonalization with overlap

---- Real-time Memory Report at c_bands before calling an iterative solver
         10704 MiB given to the printing process from OS
         -1881 MiB allocation reported by mallinfo(arena+hblkhd)
        463835 MiB available memory on the node where the printing process lives
     GPU memory used/free/total (MiB): 31675 / 33293 / 64969
------------------
     ethr =  2.30E-05,  avg # of iterations =  2.0

     negative rho (up, down):  3.684E-02 0.000E+00

     total cpu time spent up to now is       82.7 secs

     total energy              =   -9096.03388827 Ry
     estimated scf accuracy    <       0.24603825 Ry
[tb_dev] Currently allocated     2.41E+01 Mbytes, locked:    0 /   6
[tb_pin] Currently allocated     0.00E+00 Mbytes, locked:    0 /   0

     iteration # 13     ecut=    90.00 Ry     beta= 0.20
     Davidson diagonalization with overlap

---- Real-time Memory Report at c_bands before calling an iterative solver
         10704 MiB given to the printing process from OS
         -1881 MiB allocation reported by mallinfo(arena+hblkhd)
        463835 MiB available memory on the node where the printing process lives
     GPU memory used/free/total (MiB): 31675 / 33293 / 64969
------------------
     ethr =  1.77E-05,  avg # of iterations = 22.0

     negative rho (up, down):  3.788E-02 0.000E+00

     total cpu time spent up to now is       89.2 secs

     total energy              =   -9096.06529427 Ry
     estimated scf accuracy    <       0.16959154 Ry
[tb_dev] Currently allocated     2.41E+01 Mbytes, locked:    0 /   6
[tb_pin] Currently allocated     0.00E+00 Mbytes, locked:    0 /   0

     iteration # 14     ecut=    90.00 Ry     beta= 0.20
     Davidson diagonalization with overlap

---- Real-time Memory Report at c_bands before calling an iterative solver
         10704 MiB given to the printing process from OS
         -1881 MiB allocation reported by mallinfo(arena+hblkhd)
        463834 MiB available memory on the node where the printing process lives
     GPU memory used/free/total (MiB): 31675 / 33293 / 64969
------------------
     ethr =  1.22E-05,  avg # of iterations = 16.0

     negative rho (up, down):  3.942E-02 0.000E+00

     total cpu time spent up to now is       93.3 secs

     total energy              =   -9096.00175928 Ry
     estimated scf accuracy    <       0.36586108 Ry
[tb_dev] Currently allocated     2.41E+01 Mbytes, locked:    0 /   6
[tb_pin] Currently allocated     0.00E+00 Mbytes, locked:    0 /   0

     iteration # 15     ecut=    90.00 Ry     beta= 0.20
     Davidson diagonalization with overlap

---- Real-time Memory Report at c_bands before calling an iterative solver
         10715 MiB given to the printing process from OS
         -1870 MiB allocation reported by mallinfo(arena+hblkhd)
        463800 MiB available memory on the node where the printing process lives
     GPU memory used/free/total (MiB): 31675 / 33293 / 64969
------------------
     ethr =  1.22E-05,  avg # of iterations = 38.0

     negative rho (up, down):  3.975E-02 0.000E+00

     total cpu time spent up to now is      100.3 secs

     total energy              =   -9096.04715906 Ry
     estimated scf accuracy    <       0.10613652 Ry
[tb_dev] Currently allocated     2.41E+01 Mbytes, locked:    0 /   6
[tb_pin] Currently allocated     0.00E+00 Mbytes, locked:    0 /   0

     iteration # 16     ecut=    90.00 Ry     beta= 0.20
     Davidson diagonalization with overlap

---- Real-time Memory Report at c_bands before calling an iterative solver
         10715 MiB given to the printing process from OS
         -1870 MiB allocation reported by mallinfo(arena+hblkhd)
        463800 MiB available memory on the node where the printing process lives
     GPU memory used/free/total (MiB): 31675 / 33293 / 64969
------------------
     ethr =  7.62E-06,  avg # of iterations =  2.0

     negative rho (up, down):  4.018E-02 0.000E+00

     total cpu time spent up to now is      103.8 secs

     total energy              =   -9096.05207755 Ry
     estimated scf accuracy    <       0.00999107 Ry
[tb_dev] Currently allocated     2.41E+01 Mbytes, locked:    0 /   6
[tb_pin] Currently allocated     0.00E+00 Mbytes, locked:    0 /   0

     iteration # 17     ecut=    90.00 Ry     beta= 0.20
     Davidson diagonalization with overlap

---- Real-time Memory Report at c_bands before calling an iterative solver
         10715 MiB given to the printing process from OS
         -1870 MiB allocation reported by mallinfo(arena+hblkhd)
        463800 MiB available memory on the node where the printing process lives
     GPU memory used/free/total (MiB): 31675 / 33293 / 64969
------------------
     c_bands:  2 eigenvalues not converged
     ethr =  7.18E-07,  avg # of iterations = 40.0

     negative rho (up, down):  4.065E-02 0.000E+00

     total cpu time spent up to now is      110.8 secs

     total energy              =   -9096.05292938 Ry
     estimated scf accuracy    <       0.00310139 Ry
[tb_dev] Currently allocated     2.41E+01 Mbytes, locked:    0 /   6
[tb_pin] Currently allocated     0.00E+00 Mbytes, locked:    0 /   0

     iteration # 18     ecut=    90.00 Ry     beta= 0.20
     Davidson diagonalization with overlap

---- Real-time Memory Report at c_bands before calling an iterative solver
         10715 MiB given to the printing process from OS
         -1870 MiB allocation reported by mallinfo(arena+hblkhd)
        463800 MiB available memory on the node where the printing process lives
     GPU memory used/free/total (MiB): 31675 / 33293 / 64969
------------------
     ethr =  2.23E-07,  avg # of iterations =  2.0

     negative rho (up, down):  4.098E-02 0.000E+00

     total cpu time spent up to now is      114.3 secs

     total energy              =   -9096.05303663 Ry
     estimated scf accuracy    <       0.00192744 Ry
[tb_dev] Currently allocated     2.41E+01 Mbytes, locked:    0 /   6
[tb_pin] Currently allocated     0.00E+00 Mbytes, locked:    0 /   0

     iteration # 19     ecut=    90.00 Ry     beta= 0.20
     Davidson diagonalization with overlap

---- Real-time Memory Report at c_bands before calling an iterative solver
         10715 MiB given to the printing process from OS
         -1870 MiB allocation reported by mallinfo(arena+hblkhd)
        463800 MiB available memory on the node where the printing process lives
     GPU memory used/free/total (MiB): 31675 / 33293 / 64969
------------------
     ethr =  1.38E-07,  avg # of iterations =  2.0

     negative rho (up, down):  4.124E-02 0.000E+00

     total cpu time spent up to now is      117.8 secs

     total energy              =   -9096.05311078 Ry
     estimated scf accuracy    <       0.00049568 Ry
[tb_dev] Currently allocated     2.41E+01 Mbytes, locked:    0 /   6
[tb_pin] Currently allocated     0.00E+00 Mbytes, locked:    0 /   0

     iteration # 20     ecut=    90.00 Ry     beta= 0.20
     Davidson diagonalization with overlap

---- Real-time Memory Report at c_bands before calling an iterative solver
         10715 MiB given to the printing process from OS
         -1870 MiB allocation reported by mallinfo(arena+hblkhd)
        463800 MiB available memory on the node where the printing process lives
     GPU memory used/free/total (MiB): 31675 / 33293 / 64969
------------------
     ethr =  3.56E-08,  avg # of iterations =  2.0

     negative rho (up, down):  4.137E-02 0.000E+00

     total cpu time spent up to now is      121.7 secs

     total energy              =   -9096.05317558 Ry
     estimated scf accuracy    <       0.00015312 Ry
[tb_dev] Currently allocated     2.41E+01 Mbytes, locked:    0 /   6
[tb_pin] Currently allocated     0.00E+00 Mbytes, locked:    0 /   0

     iteration # 21     ecut=    90.00 Ry     beta= 0.20
     Davidson diagonalization with overlap

---- Real-time Memory Report at c_bands before calling an iterative solver
         10715 MiB given to the printing process from OS
         -1870 MiB allocation reported by mallinfo(arena+hblkhd)
        463800 MiB available memory on the node where the printing process lives
     GPU memory used/free/total (MiB): 31675 / 33293 / 64969
------------------
     ethr =  1.10E-08,  avg # of iterations =  4.0

     negative rho (up, down):  4.147E-02 0.000E+00

     total cpu time spent up to now is      125.4 secs

     total energy              =   -9096.05318485 Ry
     estimated scf accuracy    <       0.00007027 Ry
[tb_dev] Currently allocated     2.41E+01 Mbytes, locked:    0 /   6
[tb_pin] Currently allocated     0.00E+00 Mbytes, locked:    0 /   0

     iteration # 22     ecut=    90.00 Ry     beta= 0.20
     Davidson diagonalization with overlap

---- Real-time Memory Report at c_bands before calling an iterative solver
         10715 MiB given to the printing process from OS
         -1870 MiB allocation reported by mallinfo(arena+hblkhd)
        463800 MiB available memory on the node where the printing process lives
     GPU memory used/free/total (MiB): 31675 / 33293 / 64969
------------------
     ethr =  5.05E-09,  avg # of iterations =  2.0

     negative rho (up, down):  4.154E-02 0.000E+00

     total cpu time spent up to now is      129.1 secs

     total energy              =   -9096.05319336 Ry
     estimated scf accuracy    <       0.00001859 Ry
[tb_dev] Currently allocated     2.41E+01 Mbytes, locked:    0 /   6
[tb_pin] Currently allocated     0.00E+00 Mbytes, locked:    0 /   0

     iteration # 23     ecut=    90.00 Ry     beta= 0.20
     Davidson diagonalization with overlap

---- Real-time Memory Report at c_bands before calling an iterative solver
         10715 MiB given to the printing process from OS
         -1870 MiB allocation reported by mallinfo(arena+hblkhd)
        463799 MiB available memory on the node where the printing process lives
     GPU memory used/free/total (MiB): 31675 / 33293 / 64969
------------------
     ethr =  1.34E-09,  avg # of iterations =  4.0

     negative rho (up, down):  4.158E-02 0.000E+00

     total cpu time spent up to now is      133.1 secs

     total energy              =   -9096.05319675 Ry
     estimated scf accuracy    <       0.00000880 Ry
[tb_dev] Currently allocated     2.41E+01 Mbytes, locked:    0 /   6
[tb_pin] Currently allocated     0.00E+00 Mbytes, locked:    0 /   0

     iteration # 24     ecut=    90.00 Ry     beta= 0.20
     Davidson diagonalization with overlap

---- Real-time Memory Report at c_bands before calling an iterative solver
         10715 MiB given to the printing process from OS
         -1870 MiB allocation reported by mallinfo(arena+hblkhd)
        463846 MiB available memory on the node where the printing process lives
     GPU memory used/free/total (MiB): 31675 / 33293 / 64969
------------------
     ethr =  6.32E-10,  avg # of iterations =  2.0

     negative rho (up, down):  4.161E-02 0.000E+00

     total cpu time spent up to now is      136.7 secs

     total energy              =   -9096.05319764 Ry
     estimated scf accuracy    <       0.00000330 Ry
[tb_dev] Currently allocated     2.41E+01 Mbytes, locked:    0 /   6
[tb_pin] Currently allocated     0.00E+00 Mbytes, locked:    0 /   0

     iteration # 25     ecut=    90.00 Ry     beta= 0.20
     Davidson diagonalization with overlap

---- Real-time Memory Report at c_bands before calling an iterative solver
         10715 MiB given to the printing process from OS
         -1870 MiB allocation reported by mallinfo(arena+hblkhd)
        463799 MiB available memory on the node where the printing process lives
     GPU memory used/free/total (MiB): 31675 / 33293 / 64969
------------------
     ethr =  2.37E-10,  avg # of iterations =  4.0

     negative rho (up, down):  4.163E-02 0.000E+00

     total cpu time spent up to now is      140.6 secs

     total energy              =   -9096.05319815 Ry
     estimated scf accuracy    <       0.00000123 Ry
[tb_dev] Currently allocated     2.41E+01 Mbytes, locked:    0 /   6
[tb_pin] Currently allocated     0.00E+00 Mbytes, locked:    0 /   0

     iteration # 26     ecut=    90.00 Ry     beta= 0.20
     Davidson diagonalization with overlap

---- Real-time Memory Report at c_bands before calling an iterative solver
         10715 MiB given to the printing process from OS
         -1870 MiB allocation reported by mallinfo(arena+hblkhd)
        463800 MiB available memory on the node where the printing process lives
     GPU memory used/free/total (MiB): 31675 / 33293 / 64969
------------------
     ethr =  8.85E-11,  avg # of iterations =  4.0

     negative rho (up, down):  4.165E-02 0.000E+00

     total cpu time spent up to now is      144.6 secs

     total energy              =   -9096.05319843 Ry
     estimated scf accuracy    <       0.00000057 Ry
[tb_dev] Currently allocated     2.41E+01 Mbytes, locked:    0 /   6
[tb_pin] Currently allocated     0.00E+00 Mbytes, locked:    0 /   0

     iteration # 27     ecut=    90.00 Ry     beta= 0.20
     Davidson diagonalization with overlap

---- Real-time Memory Report at c_bands before calling an iterative solver
         10715 MiB given to the printing process from OS
         -1870 MiB allocation reported by mallinfo(arena+hblkhd)
        463799 MiB available memory on the node where the printing process lives
     GPU memory used/free/total (MiB): 31675 / 33293 / 64969
------------------
     ethr =  4.13E-11,  avg # of iterations =  2.0

     negative rho (up, down):  4.165E-02 0.000E+00

     total cpu time spent up to now is      148.1 secs

     total energy              =   -9096.05319846 Ry
     estimated scf accuracy    <       0.00000024 Ry
[tb_dev] Currently allocated     2.41E+01 Mbytes, locked:    0 /   6
[tb_pin] Currently allocated     0.00E+00 Mbytes, locked:    0 /   0

     iteration # 28     ecut=    90.00 Ry     beta= 0.20
     Davidson diagonalization with overlap

---- Real-time Memory Report at c_bands before calling an iterative solver
         10715 MiB given to the printing process from OS
         -1870 MiB allocation reported by mallinfo(arena+hblkhd)
        463895 MiB available memory on the node where the printing process lives
     GPU memory used/free/total (MiB): 31675 / 33293 / 64969
------------------
     ethr =  1.70E-11,  avg # of iterations =  4.0

     negative rho (up, down):  4.169E-02 0.000E+00

     total cpu time spent up to now is      151.8 secs

     End of self-consistent calculation

          k = 0.0000 0.0000 0.0000 (371318 PWs)   bands (ev):

   -72.0678 -72.0137 -71.9932 -71.9713 -71.9683 -71.9518 -71.9191 -71.9154
   -71.8659 -71.8510 -71.8424 -71.8257 -71.8161 -71.8099 -71.7570 -71.7541
   -71.7016 -71.6959 -71.6851 -71.6803 -71.6783 -71.6456 -71.6374 -71.5833
   -45.3756 -45.1251 -45.0709 -45.0682 -45.0645 -45.0080 -45.0050 -45.0016
   -44.9663 -44.9647 -44.8545 -44.8526 -44.8359 -44.8330 -44.7962 -44.7792
   -44.7737 -44.7668 -44.7616 -44.7588 -44.7565 -44.7342 -44.7241 -44.6933
   -44.6849 -44.6742 -44.6701 -44.6695 -44.6673 -44.6590 -44.6268 -44.6257
   -44.6151 -44.6024 -44.5978 -44.5937 -44.5913 -44.5771 -44.5615 -44.5477
   -44.5378 -44.5162 -44.5125 -44.4851 -44.4757 -44.4463 -44.4427 -44.4398
   -44.4344 -44.4297 -44.4249 -44.4013 -44.3852 -44.3851 -44.3742 -44.3735
   -44.3687 -44.3664 -44.3662 -44.3527 -44.3517 -44.3490 -44.3378 -44.3292
[...]
     atom  143 type  1   force =    -0.00000643   -0.00000262    0.00000112
     atom  144 type  1   force =    -0.00002523    0.00001350    0.00000461
     atom  145 type  1   force =     0.00001209   -0.00003491    0.00000602
     atom  146 type  1   force =     0.00002170    0.00002398    0.00000290
     atom  147 type  1   force =     0.00000166   -0.00001002   -0.00000146
     atom  148 type  1   force =    -0.00001107    0.00000385    0.00000065
     atom  149 type  1   force =     0.00000534    0.00000368    0.00004603
     atom  150 type  4   force =     0.00000112    0.00001306    0.00001355
     atom  151 type  2   force =    -0.00000578   -0.00001911   -0.00000211
     atom  152 type  2   force =    -0.00000170   -0.00000070   -0.00000898
     atom  153 type  2   force =    -0.00000287    0.00000891   -0.00001289
     atom  154 type  2   force =    -0.00000478   -0.00000913    0.00000455
     atom  155 type  2   force =     0.00000001   -0.00000612    0.00001061
     atom  156 type  2   force =     0.00001012   -0.00000756    0.00001001
     atom  157 type  2   force =    -0.00000502    0.00000883    0.00000254
     atom  158 type  2   force =     0.00000090   -0.00000690    0.00000037
     atom  159 type  2   force =     0.00000174    0.00000556    0.00001413
     atom  160 type  2   force =    -0.00000184   -0.00000233    0.00000393
     atom  161 type  2   force =    -0.00000322   -0.00001917   -0.00000027
     atom  162 type  2   force =     0.00000364    0.00000804    0.00000288
     atom  163 type  2   force =    -0.00000236   -0.00000443   -0.00000076
     atom  164 type  2   force =     0.00000245    0.00000594    0.00001638
     atom  165 type  3   force =    -0.00001094   -0.00001785    0.00006693
     atom  166 type  3   force =    -0.00000756   -0.00003125    0.00007468
     atom  167 type  1   force =     0.00003011   -0.00001436    0.00003724
     atom  168 type  1   force =     0.00000394    0.00000339    0.00000769
     atom  169 type  1   force =    -0.00006768   -0.00000814    0.00000601
     atom  170 type  1   force =     0.00001984   -0.00005867   -0.00000038
     atom  171 type  1   force =     0.00003414    0.00004239   -0.00000468
     atom  172 type  1   force =    -0.00001380   -0.00001746    0.00003831
     atom  173 type  1   force =    -0.00002561    0.00002010    0.00004029
     atom  174 type  1   force =    -0.00000734   -0.00001026    0.00008772
     atom  175 type  4   force =    -0.00000729    0.00000495    0.00001057
     atom  176 type  2   force =    -0.00000559   -0.00001290   -0.00000691
     atom  177 type  2   force =    -0.00001248    0.00000260    0.00000555
     atom  178 type  2   force =     0.00000212    0.00000348    0.00000031
     atom  179 type  2   force =     0.00000766   -0.00000935    0.00000381
     atom  180 type  2   force =    -0.00001579   -0.00000642    0.00000526
     atom  181 type  2   force =     0.00000689   -0.00001313    0.00000249
     atom  182 type  2   force =    -0.00000957    0.00000823   -0.00001462
     atom  183 type  2   force =    -0.00000062   -0.00001244   -0.00000756
     atom  184 type  2   force =     0.00000327    0.00000432    0.00000137
     atom  185 type  2   force =    -0.00001238    0.00000493    0.00000125
     atom  186 type  2   force =     0.00001464    0.00000865   -0.00001004
     atom  187 type  2   force =     0.00002581   -0.00000200    0.00000377
     atom  188 type  2   force =     0.00000680    0.00000968    0.00000225
     atom  189 type  2   force =    -0.00000484    0.00000853   -0.00000021
     atom  190 type  3   force =    -0.00009082   -0.00003078   -0.00000726
     atom  191 type  3   force =     0.00001570   -0.00003779   -0.00004050
     atom  192 type  1   force =     0.00003308   -0.00000581    0.00001723
     atom  193 type  1   force =    -0.00001692   -0.00000800   -0.00004218
     atom  194 type  1   force =     0.00001312   -0.00000627    0.00001915
     atom  195 type  1   force =    -0.00000498    0.00001103    0.00002313
     atom  196 type  1   force =    -0.00000253   -0.00001387    0.00001509
     atom  197 type  1   force =    -0.00004897   -0.00002777    0.00000354
     atom  198 type  1   force =    -0.00004213    0.00001943    0.00000582
     atom  199 type  1   force =     0.00000989    0.00000113   -0.00000229
     atom  200 type  4   force =     0.00000198   -0.00000582    0.00002998
     atom  201 type  2   force =    -0.00000103    0.00000485   -0.00000271
     atom  202 type  2   force =     0.00001513   -0.00000246    0.00000180
     atom  203 type  2   force =     0.00000033    0.00000208    0.00000315
     atom  204 type  2   force =    -0.00000402    0.00000950    0.00000590
     atom  205 type  2   force =    -0.00000202    0.00000042    0.00000522
     atom  206 type  2   force =    -0.00000381    0.00000465    0.00000282
     atom  207 type  2   force =    -0.00000806   -0.00000796    0.00001137
     atom  208 type  2   force =     0.00000520   -0.00001091    0.00001271
     atom  209 type  2   force =     0.00000794    0.00000837   -0.00000026
     atom  210 type  2   force =    -0.00000778    0.00001079    0.00000125
     atom  211 type  2   force =    -0.00000504   -0.00000056    0.00000305
     atom  212 type  2   force =     0.00000967    0.00000320    0.00000587
     atom  213 type  2   force =    -0.00000283    0.00000178    0.00000267
     atom  214 type  2   force =     0.00000143   -0.00000013    0.00001219
     atom  215 type  3   force =     0.00001328   -0.00000488    0.00006649
     atom  216 type  3   force =    -0.00000090    0.00000378    0.00006642
     atom  217 type  1   force =     0.00000771    0.00000410    0.00002503
     atom  218 type  1   force =     0.00000307   -0.00000823    0.00003211
     atom  219 type  1   force =    -0.00002478    0.00000302    0.00000529
     atom  220 type  1   force =     0.00001242   -0.00002453    0.00000416
     atom  221 type  1   force =     0.00001198    0.00002737    0.00000668
     atom  222 type  1   force =    -0.00000289   -0.00001059    0.00003053
     atom  223 type  1   force =    -0.00001366    0.00000465    0.00002642
     atom  224 type  1   force =    -0.00000028    0.00000657    0.00004940
     atom  225 type  4   force =     0.00001511   -0.00000975    0.00002535
     atom  226 type  2   force =    -0.00000680   -0.00000140   -0.00000355
     atom  227 type  2   force =    -0.00000650   -0.00000983    0.00000467
     atom  228 type  2   force =    -0.00000569    0.00001366   -0.00000033
     atom  229 type  2   force =    -0.00000066    0.00000121    0.00000354
     atom  230 type  2   force =     0.00000404   -0.00000163   -0.00000271
     atom  231 type  2   force =     0.00000325   -0.00000404    0.00000178
     atom  232 type  2   force =    -0.00001183    0.00000304    0.00000008
     atom  233 type  2   force =     0.00000795   -0.00000476    0.00000565
     atom  234 type  2   force =     0.00000650    0.00000490   -0.00000306
     atom  235 type  2   force =    -0.00000458    0.00000839   -0.00000331
     atom  236 type  2   force =    -0.00000737   -0.00001618   -0.00000862
     atom  237 type  2   force =     0.00001332    0.00000686   -0.00001462
     atom  238 type  2   force =    -0.00000553   -0.00001002   -0.00001910
     atom  239 type  2   force =    -0.00000310   -0.00000428   -0.00001263
     atom  240 type  3   force =    -0.00002923    0.00001677   -0.00000257
     atom  241 type  3   force =    -0.00003064   -0.00004542   -0.00003151
     atom  242 type  1   force =     0.00000536   -0.00000441    0.00000182
     atom  243 type  1   force =    -0.00000427   -0.00000062    0.00000654
     atom  244 type  1   force =     0.00000426    0.00000025    0.00001307
     atom  245 type  1   force =    -0.00001263    0.00000214    0.00001275
     atom  246 type  1   force =    -0.00001656   -0.00000850    0.00001090
     atom  247 type  1   force =    -0.00000871   -0.00000406    0.00000169
     atom  248 type  1   force =    -0.00000028    0.00000053    0.00000132
     atom  249 type  1   force =    -0.00000874   -0.00000634   -0.00000072
     atom  250 type  4   force =     0.00000931    0.00000032    0.00001096
     atom  251 type  2   force =    -0.00000202    0.00000495   -0.00000157
     atom  252 type  2   force =     0.00001266   -0.00000478    0.00000101
     atom  253 type  2   force =     0.00000140    0.00000287    0.00000491
     atom  254 type  2   force =    -0.00000232   -0.00000639   -0.00000656
     atom  255 type  2   force =    -0.00001282    0.00000016    0.00000304
     atom  256 type  2   force =     0.00000325    0.00000042   -0.00000149
     atom  257 type  2   force =    -0.00000101   -0.00001059    0.00001199
     atom  258 type  2   force =     0.00000600   -0.00000375    0.00001521
     atom  259 type  2   force =     0.00000559    0.00000241    0.00000270
     atom  260 type  2   force =    -0.00000365    0.00001067    0.00000377
     atom  261 type  2   force =    -0.00000047   -0.00000258   -0.00000292
     atom  262 type  2   force =     0.00000654    0.00000444    0.00000951
     atom  263 type  2   force =    -0.00000525    0.00000473    0.00000389
     atom  264 type  2   force =    -0.00000022   -0.00000149    0.00001580
     atom  265 type  3   force =    -0.00001012   -0.00001779    0.00006437
     atom  266 type  3   force =    -0.00001012   -0.00001328    0.00006854
     atom  267 type  1   force =     0.00000803   -0.00000180    0.00002978
     atom  268 type  1   force =    -0.00000035   -0.00000741    0.00001821
     atom  269 type  1   force =    -0.00003716   -0.00000037    0.00000391
     atom  270 type  1   force =     0.00001337   -0.00003309    0.00000454
     atom  271 type  1   force =     0.00002071    0.00003552    0.00000233
     atom  272 type  1   force =    -0.00001294   -0.00002275    0.00003703
     atom  273 type  1   force =    -0.00001352    0.00000527    0.00002925
     atom  274 type  1   force =     0.00000028   -0.00000051    0.00005972
     atom  275 type  4   force =     0.00001750    0.00000390    0.00003137
     atom  276 type  2   force =    -0.00000865   -0.00000968    0.00000242
     atom  277 type  2   force =     0.00000336   -0.00000460   -0.00000473
     atom  278 type  2   force =     0.00000266   -0.00000568   -0.00000071
     atom  279 type  2   force =     0.00000295    0.00000610    0.00000629
     atom  280 type  2   force =    -0.00000546    0.00000588    0.00000129
     atom  281 type  2   force =     0.00000150   -0.00000187   -0.00000644
     atom  282 type  2   force =    -0.00000681   -0.00000077   -0.00000120
     atom  283 type  2   force =     0.00000005   -0.00001034   -0.00000977
     atom  284 type  2   force =     0.00000323    0.00000486   -0.00000187
     atom  285 type  2   force =    -0.00000414    0.00000751   -0.00000443
     atom  286 type  2   force =    -0.00000690   -0.00000541   -0.00000949
     atom  287 type  2   force =     0.00001386    0.00000086   -0.00001445
     atom  288 type  2   force =    -0.00000128   -0.00000863   -0.00000772
     atom  289 type  2   force =     0.00000219    0.00000357   -0.00001676
     atom  290 type  3   force =    -0.00001203    0.00005492   -0.00001915
     atom  291 type  3   force =    -0.00001956   -0.00003460    0.00000119
     atom  292 type  1   force =     0.00001670   -0.00000684    0.00000510
     atom  293 type  1   force =    -0.00000081    0.00000832   -0.00002542
     atom  294 type  1   force =    -0.00004532   -0.00000958    0.00000405
     atom  295 type  1   force =     0.00000583   -0.00004128   -0.00000064
     atom  296 type  1   force =     0.00001129    0.00003189   -0.00000874
     atom  297 type  1   force =    -0.00001549   -0.00001394    0.00000386
     atom  298 type  1   force =    -0.00001609    0.00002779    0.00000456
     atom  299 type  1   force =    -0.00001533   -0.00000933    0.00005270
     atom  300 type  4   force =    -0.00000500   -0.00000248   -0.00000680

     Total force =     0.983343     Total SCF correction =     0.000535


     Computing stress (Cartesian axis) and pressure


     negative rho (up, down):  4.169E-02 0.000E+00
          total   stress  (Ry/bohr**3)                   (kbar)     P=        3.35
   0.00004565   0.00000387  -0.00000651            6.72        0.57       -0.96
   0.00000387   0.00004794   0.00001292            0.57        7.05        1.90
  -0.00000651   0.00001292  -0.00002533           -0.96        1.90       -3.73

     kinetic stress (kbar)   5332.83     -0.68     -1.21
                               -0.68   5334.57      2.48
                               -1.21      2.48   5325.78

     local   stress (kbar)-644378.30     79.82    -12.17
                               79.82-644388.18    -77.69
                              -12.17    -77.69 637945.21

     nonloc. stress (kbar)    958.11     -0.06     -0.01
                               -0.06    957.84      0.18
                               -0.01      0.18    953.67

     hartree stress (kbar) 322824.71    -30.97      9.83
                              -30.97 322823.41     33.95
                                9.83     33.95-316928.71

     exc-cor stress (kbar)  -1263.84     -0.12     -0.06
                               -0.12  -1263.74      0.02
                               -0.06      0.02  -1265.77

     corecor stress (kbar)   -292.84      0.02      0.01
                                0.02   -292.87     -0.02
                                0.01     -0.02   -292.75

     ewald   stress (kbar) 316826.05    -47.44      2.65
                              -47.44 316836.02     42.98
                                2.65     42.98-325741.16

     hubbard stress (kbar)      0.00      0.00      0.00
                                0.00      0.00      0.00
                                0.00      0.00      0.00

     DFT-D   stress (kbar)      0.00      0.00      0.00
                                0.00      0.00      0.00
                                0.00      0.00      0.00

     XDM     stress (kbar)      0.00      0.00      0.00
                                0.00      0.00      0.00
                                0.00      0.00      0.00

     dft-nl  stress (kbar)      0.00      0.00      0.00
                                0.00      0.00      0.00
                                0.00      0.00      0.00

     TS-vdW  stress (kbar)      0.00      0.00      0.00
                                0.00      0.00      0.00
                                0.00      0.00      0.00

     MDB     stress (kbar)      0.00      0.00      0.00
                                0.00      0.00      0.00
                                0.00      0.00      0.00

     3D-RISM stress (kbar)      0.00      0.00      0.00
                                0.00      0.00      0.00
                                0.00      0.00      0.00


     Writing all to output data dir ./tmp/pwscf.save/
 
     init_run     :     29.29s CPU     34.06s WALL (       1 calls)
     electrons    :    110.99s CPU    117.46s WALL (       1 calls)
     forces       :      3.14s CPU      3.36s WALL (       1 calls)
     stress       :     81.04s CPU     83.46s WALL (       1 calls)

     Called by init_run:
     wfcinit      :      3.57s CPU      5.45s WALL (       1 calls)
                                        5.45s GPU  (       1 calls)
     wfcinit:atom :      0.01s CPU      0.01s WALL (       1 calls)
                                        0.01s GPU  (       1 calls)
     wfcinit:wfcr :      1.32s CPU      2.47s WALL (       1 calls)
                                        2.47s GPU  (       1 calls)
     potinit      :     16.18s CPU     16.46s WALL (       1 calls)
     hinit0       :      7.20s CPU      7.44s WALL (       1 calls)

     Called by electrons:
     c_bands      :     70.91s CPU     72.63s WALL (      28 calls)
     sum_band     :     15.30s CPU     15.69s WALL (      28 calls)
     v_of_rho     :      3.07s CPU      3.25s WALL (      29 calls)
     v_h          :      1.68s CPU      1.79s WALL (      29 calls)
     v_xc         :      1.52s CPU      1.60s WALL (      31 calls)
     newd         :      2.37s CPU      4.48s WALL (      29 calls)
                                        4.48s GPU  (      29 calls)
     PAW_pot      :      3.15s CPU      3.17s WALL (      29 calls)
     mix_rho      :      7.67s CPU      7.94s WALL (      28 calls)

     Called by c_bands:
     init_us_2    :      0.44s CPU      0.61s WALL (      57 calls)
     init_us_2:gp :      0.44s CPU      0.61s WALL (      57 calls)
     regterg      :     61.88s CPU     63.41s WALL (      31 calls)

     Called by sum_band:
     sum_band:wei :      0.01s CPU      0.01s WALL (      28 calls)
                                        0.01s GPU  (      28 calls)
     sum_band:loo :     12.05s CPU     12.36s WALL (      28 calls)
                                       12.36s GPU  (      28 calls)
     sum_band:buf :      1.82s CPU      1.83s WALL (      28 calls)
                                        1.83s GPU  (      28 calls)
     sum_band:ini :      0.22s CPU      0.44s WALL (      28 calls)
                                        0.44s GPU  (      28 calls)
     sum_band:cal :      1.99s CPU      2.07s WALL (      28 calls)
                                        2.07s GPU  (      28 calls)
     sum_band:bec :      0.19s CPU      0.19s WALL (      28 calls)
                                        0.19s GPU  (      28 calls)
     addusdens    :      2.00s CPU      2.05s WALL (      28 calls)
                                        2.05s GPU  (      28 calls)
     addusd:skk   :      0.42s CPU      0.44s WALL (     112 calls)
                                        0.44s GPU  (     112 calls)

     Called by *egterg:
     rdiaghg      :      6.30s CPU      6.41s WALL (     243 calls)
                                        6.40s GPU  (     243 calls)
     regterg:over :      3.80s CPU      3.90s WALL (     212 calls)
     regterg:upda :      2.01s CPU      2.06s WALL (     212 calls)
     regterg:last :      3.99s CPU      4.01s WALL (      64 calls)
     h_psi        :     39.51s CPU     41.73s WALL (     244 calls)
                                       41.72s GPU  (     244 calls)
     s_psi        :      1.04s CPU      4.96s WALL (     244 calls)
                                        4.81s GPU  (     244 calls)
     g_psi        :      0.00s CPU      0.19s WALL (     212 calls)
                                        0.19s GPU  (     212 calls)

     Called by h_psi:
     h_psi:calbec :      5.88s CPU      6.16s WALL (     244 calls)
                                        6.16s GPU  (     244 calls)
     vloc_psi     :     29.19s CPU     30.49s WALL (     244 calls)
                                       30.49s GPU  (     244 calls)
     add_vuspsi   :      0.46s CPU      4.86s WALL (     244 calls)
                                        4.85s GPU  (     244 calls)

     General routines
     calbec       :      8.27s CPU      8.78s WALL (     277 calls)
     fft          :      5.58s CPU      7.32s WALL (     337 calls)
                                        0.74s GPU  (     308 calls)
     ffts         :      2.88s CPU      3.38s WALL (      57 calls)
                                        0.05s GPU  (      28 calls)
     fftw         :     17.59s CPU     29.51s WALL (   15978 calls)
                                       29.34s GPU  (   15978 calls)
     interpolate  :      9.01s CPU     11.10s WALL (      29 calls)
 
     Parallel routines

     PAW routines
     PAW_pot      :      3.15s CPU      3.17s WALL (      29 calls)
 
     PWSCF        :   3m46.89s CPU   4m 5.88s WALL

 
   This run was terminated on:  13:34:31  30Dec2023            

=------------------------------------------------------------------------------=
   JOB DONE.
=------------------------------------------------------------------------------=
