
     Program PWSCF v.7.2 starts on 30Dec2023 at 13:38:57 

     This program is part of the open-source Quantum ESPRESSO suite
     for quantum simulation of materials; please cite
         "P. Giannozzi et al., J. Phys.:Condens. Matter 21 395502 (2009);
         "P. Giannozzi et al., J. Phys.:Condens. Matter 29 465901 (2017);
         "P. Giannozzi et al., J. Chem. Phys. 152 154105 (2020);
          URL http://www.quantum-espresso.org", 
     in publications or presentations arising from this work. More details at
     http://www.quantum-espresso.org/quote

     Parallel version (MPI & OpenMP), running on       4 processor cores
     Number of MPI processes:                 4
     Threads/MPI process:                     1

     MPI processes distributed on     1 nodes
     504192 MiB available memory on the printing compute node when the environment starts
 
     Reading input from input_0004.inp

     Current dimensions of program PWSCF are:
     Max number of different atomic species (ntypx) = 10
     Max number of k-points (npk) =  40000
     Max angular momentum in pseudopotentials (lmaxx) =  4
     file O.pbe-n-kjpaw_psl.0.1.UPF: wavefunction(s)  2P renormalized

     gamma-point specific algorithms are used
 
     R & G space division:  proc/nbgrp/npool/nimage =       4
     Subspace diagonalization in iterative solution of the eigenvalue problem:
     a serial algorithm will be used

 
     Parallelization info
     --------------------
     sticks:   dense  smooth     PW     G-vecs:    dense   smooth      PW
     Min        6485    4324   1079              2728975  1485363  185656
     Max        6486    4326   1080              2728990  1485382  185664
     Sum       25943   17301   4319             10915929  5941483  742635
 
     Using Slab Decomposition
 


     bravais-lattice index     =            0
     lattice parameter (alat)  =      32.3352  a.u.
     unit-cell volume          =   51510.8153 (a.u.)^3
     number of atoms/cell      =          300
     number of atomic types    =            4
     number of electrons       =      1392.00
     number of Kohn-Sham states=          835
     kinetic-energy cutoff     =      90.0000  Ry
     charge density cutoff     =     540.0000  Ry
     scf convergence threshold =      1.0E-07
     mixing beta               =       0.2000
     number of iterations used =            8  plain     mixing
     Exchange-correlation= SLA  PW   PBX  PBC
                           (   1   4   3   4   0   0   0)

     GPU acceleration is ACTIVE.
     GPU-aware MPI enabled


     GPU used by master process:

        Device Number: 0
        Device name: NVIDIA PG506-243
        Compute capability : 80
        Ratio of single to double precision performance  : 2
        Memory Clock Rate (KHz): 1593000
        Memory Bus Width (bits): 4096
        Peak Memory Bandwidth (GB/s): ******

     celldm(1)=  32.335181  celldm(2)=   0.000000  celldm(3)=   0.000000
     celldm(4)=   0.000000  celldm(5)=   0.000000  celldm(6)=   0.000000

     crystal axes: (cart. coord. in units of alat)
               a(1) = (   1.000000   0.000000   0.000000 )  
               a(2) = (  -0.333333   0.577350   0.000000 )  
               a(3) = (   0.000000  -0.000000   2.638962 )  

     reciprocal axes: (cart. coord. in units 2 pi/alat)
               b(1) = (  1.000000  0.577350  0.000000 )  
               b(2) = ( -0.000000  1.732051  0.000000 )  
               b(3) = (  0.000000 -0.000000  0.378937 )  


     PseudoPot. # 1 for N  read from file:
     /leonardo_scratch/large/userexternal/uraucci0/Li_Cr/PPS/N.pbe-n-radius_5.UPF
     MD5 check sum: 16739722b17309cd8fe442a2ace49922
     Pseudo is Ultrasoft + core correction, Zval =  5.0
     Generated using "atomic" code by A. Dal Corso  v.5.1
     Using radial grid of 1085 points,  4 beta functions with: 
                l(1) =   0
                l(2) =   0
                l(3) =   1
                l(4) =   1
     Q(r) pseudized with 0 coefficients 


     PseudoPot. # 2 for Li read from file:
     /leonardo_scratch/large/userexternal/uraucci0/Li_Cr/PPS/li_pbe_v1.4.uspp.F.UPF
     MD5 check sum: e912e257baa3777c20ea3d68f190483c
     Pseudo is Ultrasoft, Zval =  3.0
     Generated by new atomic code, or converted to UPF format
     Using radial grid of  751 points,  5 beta functions with: 
                l(1) =   0
                l(2) =   0
                l(3) =   0
                l(4) =   1
                l(5) =   1
     Q(r) pseudized with 10 coefficients,  rinner =    1.150   1.150   1.150


     PseudoPot. # 3 for Cr read from file:
     /leonardo_scratch/large/userexternal/uraucci0/Li_Cr/PPS/cr_pbe_v1.5.uspp.F.UPF
     MD5 check sum: 0d52af634a40206e4dee301ad30da4bf
     Pseudo is Ultrasoft + core correction, Zval = 14.0
     Generated by new atomic code, or converted to UPF format
     Using radial grid of  857 points,  6 beta functions with: 
                l(1) =   0
                l(2) =   0
                l(3) =   1
                l(4) =   1
                l(5) =   2
                l(6) =   2
     Q(r) pseudized with  8 coefficients,  rinner =    0.950   0.950   0.950
                                                       0.950   0.950

     PseudoPot. # 4 for O  read from file:
     /leonardo_scratch/large/userexternal/uraucci0/Li_Cr/PPS/O.pbe-n-kjpaw_psl.0.1.UPF
     MD5 check sum: 0234752ac141de4415c5fc33072bef88
     Pseudo is Projector augmented-wave + core cor, Zval =  6.0
     Generated using "atomic" code by A. Dal Corso  v.5.0.99 svn rev. 10869
     Shape of augmentation charge: BESSEL
     Using radial grid of 1095 points,  4 beta functions with: 
                l(1) =   0
                l(2) =   0
                l(3) =   1
                l(4) =   1
     Q(r) pseudized with 0 coefficients 


     atomic species   valence    mass     pseudopotential
        N              5.00    14.00674     N ( 1.00)
        Li             3.00     6.94100     Li( 1.00)
        Cr            14.00    51.99610     Cr( 1.00)
        O              6.00    15.99940     O ( 1.00)

     No symmetry found


                                    s                        frac. trans.

      isym =  1     identity                                     

 cryst.   s( 1) = (     1          0          0      )
                  (     0          1          0      )
                  (     0          0          1      )

 cart.    s( 1) = (  1.0000000  0.0000000  0.0000000 )
                  (  0.0000000  1.0000000  0.0000000 )
                  (  0.0000000  0.0000000  1.0000000 )


   Cartesian axes

     site n.     atom                  positions (alat units)
         1           Li  tau(   1) = (   0.2593273   0.0873080   0.8766270  )
         2           Li  tau(   2) = (   0.1280588   0.1809300   0.8766270  )
         3           Li  tau(   3) = (   0.1126144   0.0204373   0.8766270  )
         4           Li  tau(   4) = (  -0.1029014   0.2117189   1.2777773  )
         5           Li  tau(   5) = (   0.0544843   0.0930031   1.2813949  )
         6           Li  tau(   6) = (   0.0599648   0.2695797   1.2789052  )
         7           Li  tau(   7) = (   0.0669942   0.0904568   1.0336250  )
         8           Li  tau(   8) = (   0.2214985   0.0127904   1.0336250  )
         9           Li  tau(   9) = (   0.2115073   0.1854282   1.0336250  )
        10           Li  tau(  10) = (   0.1087923   0.2040811   1.1151455  )
        11           Li  tau(  11) = (  -0.0524314   0.2711840   1.1225267  )
        12           Li  tau(  12) = (  -0.0501868   0.1122351   1.1277221  )
        13           Li  tau(  13) = (   0.0000000   0.0000000   0.9626942  )
        14           Li  tau(  14) = (  -0.0240247   0.0004539   1.1919614  )
        15           Cr  tau(  15) = (   0.1673364   0.1052683   1.2074134  )
        16           Cr  tau(  16) = (  -0.0000000   0.1924500   0.9478909  )
        17           N   tau(  17) = (   0.2614405   0.0843192   1.2475454  )
        18           N   tau(  18) = (   0.1794882   0.1071501   1.1059234  )
        19           N   tau(  19) = (  -0.0969339   0.1982778   0.9168466  )
        20           N   tau(  20) = (   0.0434200   0.1055885   0.9168466  )
        21           N   tau(  21) = (   0.0535141   0.2734837   0.9168466  )
        22           N   tau(  22) = (   0.1122188   0.0195976   1.2291011  )
        23           N   tau(  23) = (   0.1275323   0.1848187   1.2455057  )
        24           N   tau(  24) = (  -0.0000000   0.1924500   1.0497374  )
        25           O   tau(  25) = (   0.6652839   0.5794159   1.0816700  )
        26           Li  tau(  26) = (   0.2683414   0.0878801   1.3701913  )
        27           Li  tau(  27) = (   0.1188712   0.1755901   1.3692387  )
        28           Li  tau(  28) = (   0.1135255   0.0167494   1.3771459  )
        29           Li  tau(  29) = (  -0.0924988   0.2206458   1.7880034  )
        30           Li  tau(  30) = (   0.0497642   0.1253103   1.7831060  )
        31           Li  tau(  31) = (   0.0683448   0.2968837   1.7902651  )
        32           Li  tau(  32) = (   0.0619641   0.1125291   1.5512031  )
        33           Li  tau(  33) = (   0.2244668   0.0283804   1.5524421  )
        34           Li  tau(  34) = (   0.2143774   0.1840835   1.5450784  )
        35           Li  tau(  35) = (   0.1097835   0.1934540   1.6336703  )
        36           Li  tau(  36) = (  -0.0686200   0.3028869   1.6191943  )
        37           Li  tau(  37) = (  -0.0437187   0.1144390   1.6273469  )
        38           Li  tau(  38) = (  -0.3159270   0.5583009   1.4817333  )
        39           Li  tau(  39) = (   0.9919326   0.0175299   1.7067576  )
        40           Cr  tau(  40) = (   0.1763522   0.1080846   1.7197259  )
        41           Cr  tau(  41) = (  -0.0012462   0.1970698   1.4433488  )
        42           N   tau(  42) = (   0.2773093   0.1021761   1.7450429  )
        43           N   tau(  43) = (   0.1663920   0.1015602   1.6170086  )
        44           N   tau(  44) = (  -0.0932708   0.2104255   1.3925979  )
        45           N   tau(  45) = (   0.0427736   0.1076580   1.4098675  )
        46           N   tau(  46) = (   0.0413791   0.2808064   1.4153142  )
        47           N   tau(  47) = (   0.1212796   0.0309163   1.7642936  )
        48           N   tau(  48) = (   0.1286637   0.1969290   1.7453234  )
        49           N   tau(  49) = (  -0.0049202   0.2032232   1.5520739  )
        50           O   tau(  50) = (   0.0078412   0.0106362   1.5918903  )
        51           Li  tau(  51) = (   0.0926606   0.3759836   0.8766270  )
        52           Li  tau(  52) = (  -0.0386079   0.4696050   0.8766270  )
        53           Li  tau(  53) = (  -0.0540524   0.3091127   0.8766270  )
        54           Li  tau(  54) = (  -0.2657138   0.5025293   1.2723013  )
        55           Li  tau(  55) = (  -0.1288712   0.4021345   1.2812078  )
        56           Li  tau(  56) = (  -0.1276234   0.5547050   1.2910553  )
        57           Li  tau(  57) = (  -0.0996725   0.3791318   1.0336250  )
        58           Li  tau(  58) = (   0.0548319   0.3014656   1.0336250  )
        59           Li  tau(  59) = (   0.0448406   0.4741032   1.0336250  )
        60           Li  tau(  60) = (  -0.0815041   0.4981853   1.1248351  )
        61           Li  tau(  61) = (  -0.2269494   0.5654472   1.1193942  )
        62           Li  tau(  62) = (  -0.2055737   0.3967520   1.1122701  )
        63           Li  tau(  63) = (  -0.1666667   0.2886750   0.9626942  )
        64           Li  tau(  64) = (  -0.1646078   0.2971181   1.2011075  )
        65           Cr  tau(  65) = (  -0.0017532   0.3846160   1.2147303  )
        66           Cr  tau(  66) = (  -0.1666667   0.4811250   0.9478909  )
        67           N   tau(  67) = (   0.0985580   0.3817436   1.2461720  )
        68           N   tau(  68) = (   0.0036643   0.3761957   1.1074019  )
        69           N   tau(  69) = (  -0.2636006   0.4869528   0.9168466  )
        70           N   tau(  70) = (  -0.1232467   0.3942641   0.9168466  )
        71           N   tau(  71) = (  -0.1131527   0.5621587   0.9168466  )
        72           N   tau(  72) = (  -0.0468928   0.3052129   1.2456986  )
        73           N   tau(  73) = (  -0.0409310   0.4666046   1.2508882  )
        74           N   tau(  74) = (  -0.1666667   0.4811250   1.0497374  )
        75           O   tau(  75) = (  -0.1690850   0.2954572   1.0766732  )
        76           Li  tau(  76) = (   0.0942877   0.3747691   1.3572874  )
        77           Li  tau(  77) = (  -0.0359300   0.4840909   1.3701913  )
        78           Li  tau(  78) = (  -0.0554599   0.3147254   1.3624186  )
        79           Li  tau(  79) = (  -0.2505488   0.5083384   1.7516409  )
        80           Li  tau(  80) = (  -0.1277836   0.3970395   1.7815807  )
        81           Li  tau(  81) = (  -0.1011867   0.5702084   1.7963489  )
        82           Li  tau(  82) = (  -0.1227780   0.3833823   1.5395732  )
        83           Li  tau(  83) = (   0.0608134   0.2935368   1.5375920  )
        84           Li  tau(  84) = (  -0.0038212   0.3900388   1.4684612  )
        85           Li  tau(  85) = (  -0.0805077   0.4941938   1.6150683  )
        86           Li  tau(  86) = (  -0.2358834   0.5700243   1.6289190  )
        87           Li  tau(  87) = (  -0.2164240   0.3920580   1.6309352  )
        88           Li  tau(  88) = (  -0.1612614   0.2905633   1.4585670  )
        89           Li  tau(  89) = (   0.8471665   0.3001027   1.6963959  )
        90           Cr  tau(  90) = (  -0.0052747   0.3963254   1.7010070  )
        91           Cr  tau(  91) = (  -0.1608383   0.4884016   1.4410345  )
        92           N   tau(  92) = (   0.0952350   0.3915571   1.7338337  )
        93           N   tau(  93) = (  -0.0117502   0.3949935   1.5992481  )
        94           N   tau(  94) = (  -0.2513383   0.4800322   1.4024629  )
        95           N   tau(  95) = (  -0.1121656   0.3995648   1.4230227  )
        96           N   tau(  96) = (  -0.1147172   0.5650550   1.4028720  )
        97           N   tau(  97) = (  -0.0487539   0.3115918   1.7408584  )
        98           N   tau(  98) = (  -0.0575293   0.4751038   1.7422084  )
        99           N   tau(  99) = (  -0.1749245   0.4856174   1.5483862  )
       100           O   tau( 100) = (   0.8392125   0.2937536   1.5762805  )
       101           Li  tau( 101) = (   0.5926583   0.0873080   0.8766270  )
       102           Li  tau( 102) = (   0.4613921   0.1809300   0.8766270  )
       103           Li  tau( 103) = (   0.4459477   0.0204373   0.8766270  )
       104           Li  tau( 104) = (   0.2362270   0.1928556   1.2965430  )
       105           Li  tau( 105) = (   0.3639796   0.1133718   1.2670415  )
       106           Li  tau( 106) = (   0.4243132   0.2618397   1.2865845  )
       107           Li  tau( 107) = (   0.4003275   0.0904568   1.0336250  )
       108           Li  tau( 108) = (   0.5548318   0.0127904   1.0336250  )
       109           Li  tau( 109) = (   0.5448406   0.1854282   1.0336250  )
       110           Li  tau( 110) = (   0.4392725   0.1914039   1.1156481  )
       111           Li  tau( 111) = (   0.3070263   0.2879439   1.1237598  )
       112           Li  tau( 112) = (   0.2920570   0.0909483   1.1102188  )
       113           Li  tau( 113) = (   0.3333333   0.0000000   0.9626942  )
       114           Li  tau( 114) = (   0.0000332   0.5680800   1.2264128  )
       115           Cr  tau( 115) = (   0.5096458   0.0919073   1.2058121  )
       116           Cr  tau( 116) = (   0.3333333   0.1924500   0.9478909  )
       117           N   tau( 117) = (   0.6055505   0.0846296   1.2396323  )
       118           N   tau( 118) = (   0.5016305   0.0917349   1.1040240  )
       119           N   tau( 119) = (   0.2363994   0.1982778   0.9168466  )
       120           N   tau( 120) = (   0.3767532   0.1055885   0.9168466  )
       121           N   tau( 121) = (   0.3868473   0.2734837   0.9168466  )
       122           N   tau( 122) = (   0.4448379   0.0041189   1.2407369  )
       123           N   tau( 123) = (   0.4628585   0.1761033   1.2350213  )
       124           N   tau( 124) = (   0.3333333   0.1924500   1.0497374  )
       125           O   tau( 125) = (   0.3308267  -0.0144193   1.0765447  )
       126           Li  tau( 126) = (   0.6026986   0.0866294   1.3789985  )
       127           Li  tau( 127) = (   0.4650559   0.1830146   1.3923758  )
       128           Li  tau( 128) = (   0.4354820   0.0220246   1.3754628  )
       129           Li  tau( 129) = (   0.2500052   0.2164345   1.7853911  )
       130           Li  tau( 130) = (   0.3873254   0.1186111   1.7883658  )
       131           Li  tau( 131) = (   0.3994900   0.2744731   1.7843216  )
       132           Li  tau( 132) = (   0.3994666   0.0901868   1.5387784  )
       133           Li  tau( 133) = (   0.1431631   0.5758393   1.6415483  )
       134           Li  tau( 134) = (   0.5479053   0.1776917   1.5382524  )
       135           Li  tau( 135) = (   0.4435294   0.1930987   1.6306839  )
       136           Li  tau( 136) = (   0.2912646   0.2662614   1.6308768  )
       137           Li  tau( 137) = (   0.2838056   0.1076808   1.6269086  )
       138           Li  tau( 138) = (   0.3275680  -0.0019100   1.4650190  )
       139           Li  tau( 139) = (   0.3395398  -0.0060242   1.7034849  )
       140           Cr  tau( 140) = (   0.5096177   0.1017109   1.7121167  )
       141           Cr  tau( 141) = (   0.3335542   0.1872522   1.4488364  )
       142           N   tau( 142) = (   0.5985434   0.0931533   1.7495838  )
       143           N   tau( 143) = (   0.5045701   0.1061262   1.6121404  )
       144           N   tau( 144) = (   0.2417270   0.1937322   1.4080733  )
       145           N   tau( 145) = (   0.3771138   0.1048183   1.4300299  )
       146           N   tau( 146) = (   0.3967894   0.2612173   1.4204104  )
       147           N   tau( 147) = (   0.4524254   0.0216256   1.7537390  )
       148           N   tau( 148) = (   0.4641833   0.1870658   1.7494377  )
       149           N   tau( 149) = (   0.3323567   0.1969565   1.5567960  )
       150           O   tau( 150) = (   0.3262391   0.0113416   1.5796467  )
       151           Li  tau( 151) = (   0.4259940   0.3759836   0.8766270  )
       152           Li  tau( 152) = (   0.2947255   0.4696050   0.8766270  )
       153           Li  tau( 153) = (   0.2792811   0.3091127   0.8766270  )
       154           Li  tau( 154) = (   0.0709279   0.4894799   1.2950702  )
       155           Li  tau( 155) = (   0.2268237   0.3894485   1.2931358  )
       156           Li  tau( 156) = (   0.2089931   0.5500893   1.2844689  )
       157           Li  tau( 157) = (   0.2336608   0.3791318   1.0336250  )
       158           Li  tau( 158) = (   0.3881652   0.3014656   1.0336250  )
       159           Li  tau( 159) = (   0.3781739   0.4741032   1.0336250  )
       160           Li  tau( 160) = (   0.2693933   0.4889954   1.1228656  )
       161           Li  tau( 161) = (   0.0971104   0.5664442   1.1298903  )
       162           Li  tau( 162) = (   0.1182050   0.3881955   1.1327481  )
       163           Li  tau( 163) = (   0.1666667   0.2886750   0.9626942  )
       164           Li  tau( 164) = (   0.1792708   0.2774735   1.2073608  )
       165           Cr  tau( 165) = (   0.3390483   0.3849474   1.2164777  )
       166           Cr  tau( 166) = (   0.1666667   0.4811250   0.9478909  )
       167           N   tau( 167) = (   0.4400936   0.3815133   1.2484571  )
       168           N   tau( 168) = (   0.3345886   0.3851425   1.1168870  )
       169           N   tau( 169) = (   0.0697328   0.4869528   0.9168466  )
       170           N   tau( 170) = (   0.2100866   0.3942641   0.9168466  )
       171           N   tau( 171) = (   0.2201806   0.5621587   0.9168466  )
       172           N   tau( 172) = (   0.2804897   0.3026087   1.2416135  )
       173           N   tau( 173) = (   0.2902266   0.4659921   1.2629623  )
       174           N   tau( 174) = (   0.1666667   0.4811250   1.0497374  )
       175           O   tau( 175) = (   0.1557655   0.3036455   1.0642251  )
       176           Li  tau( 176) = (   0.4457262   0.3551274   1.3855674  )
       177           Li  tau( 177) = (   0.2876307   0.4693928   1.3842641  )
       178           Li  tau( 178) = (   0.2865886   0.2856197   1.3605192  )
       179           Li  tau( 179) = (   0.0832527   0.4912910   1.7860515  )
       180           Li  tau( 180) = (   0.1998207   0.3979670   1.7680514  )
       181           Li  tau( 181) = (   0.2210380   0.5683436   1.8042093  )
       182           Li  tau( 182) = (   0.2338671   0.3938825   1.5357862  )
       183           Li  tau( 183) = (   0.3809166   0.2949844   1.5257984  )
       184           Li  tau( 184) = (   0.3877859   0.5001905   1.5390647  )
       185           Li  tau( 185) = (   0.2682736   0.4813079   1.6230807  )
       186           Li  tau( 186) = (   0.0572152   0.5036999   1.5474102  )
       187           Li  tau( 187) = (   0.1125005   0.3929153   1.6129936  )
       188           Li  tau( 188) = (   0.1718890   0.2901033   1.4511566  )
       189           Li  tau( 189) = (   0.1608272   0.2804698   1.6786237  )
       190           Cr  tau( 190) = (   0.3313510   0.3910744   1.7117544  )
       191           Cr  tau( 191) = (   0.1607342   0.4864070   1.4568079  )
       192           N   tau( 192) = (   0.4332536   0.3811440   1.7410747  )
       193           N   tau( 193) = (   0.3265570   0.3923332   1.6103345  )
       194           N   tau( 194) = (   0.0622896   0.4928543   1.4274760  )
       195           N   tau( 195) = (   0.2059799   0.3964399   1.4203811  )
       196           N   tau( 196) = (   0.2149419   0.5603476   1.4163194  )
       197           N   tau( 197) = (   0.2738022   0.3074091   1.7466558  )
       198           N   tau( 198) = (   0.2925631   0.4763603   1.7547442  )
       199           N   tau( 199) = (   0.1677449   0.4841079   1.5700389  )
       200           O   tau( 200) = (   0.1657006   0.2810974   1.5750240  )
       201           Li  tau( 201) = (   0.9259927   0.0873080   0.8766270  )
       202           Li  tau( 202) = (   0.7947266   0.1809300   0.8766270  )
       203           Li  tau( 203) = (   0.7792805   0.0204373   0.8766270  )
       204           Li  tau( 204) = (   0.5750912   0.2025435   1.2912890  )
       205           Li  tau( 205) = (   0.7041886   0.1176369   1.2810033  )
       206           Li  tau( 206) = (   0.7095010   0.2849119   1.2912131  )
       207           Li  tau( 207) = (   0.7336608   0.0904568   1.0336250  )
       208           Li  tau( 208) = (   0.8881634   0.0127904   1.0336250  )
       209           Li  tau( 209) = (   0.8781757   0.1854282   1.0336250  )
       210           Li  tau( 210) = (   0.7602518   0.2049665   1.1243851  )
       211           Li  tau( 211) = (   0.6169116   0.2933872   1.1144559  )
       212           Li  tau( 212) = (   0.6169291   0.1044969   1.1157416  )
       213           Li  tau( 213) = (   0.6666690   0.0000000   0.9626942  )
       214           Li  tau( 214) = (   0.3395860   0.5630476   1.2161563  )
       215           Cr  tau( 215) = (   0.8340404   0.1034437   1.2125504  )
       216           Cr  tau( 216) = (   0.6666690   0.1924500   0.9478909  )
       217           N   tau( 217) = (   0.9280850   0.0854968   1.2432031  )
       218           N   tau( 218) = (   0.8374826   0.1042982   1.1126675  )
       219           N   tau( 219) = (   0.5697327   0.1982778   0.9168466  )
       220           N   tau( 220) = (   0.7100854   0.1055885   0.9168466  )
       221           N   tau( 221) = (   0.7201783   0.2734837   0.9168466  )
       222           N   tau( 222) = (   0.7792571   0.0226156   1.2489947  )
       223           N   tau( 223) = (   0.7945396   0.1843120   1.2531967  )
       224           N   tau( 224) = (   0.6666690   0.1924500   1.0497374  )
       225           O   tau( 225) = (   0.6624319  -0.0030022   1.0731550  )
       226           Li  tau( 226) = (   0.9206103   0.0863314   1.4005694  )
       227           Li  tau( 227) = (   0.7845402   0.1898616   1.3643647  )
       228           Li  tau( 228) = (   0.7649739   0.0134436   1.3767368  )
       229           Li  tau( 229) = (   0.5599274   0.2159179   1.7878339  )
       230           Li  tau( 230) = (   0.7039139   0.0816181   1.7930937  )
       231           Li  tau( 231) = (   0.7255491   0.2843562   1.7860339  )
       232           Li  tau( 232) = (   0.7175192   0.0649283   1.5294861  )
       233           Li  tau( 233) = (   0.8852880   0.0048349   1.5444122  )
       234           Li  tau( 234) = (   0.8844231   0.1860863   1.5396024  )
       235           Li  tau( 235) = (   0.7729804   0.1812707   1.6241443  )
       236           Li  tau( 236) = (   0.6136155   0.2787756   1.6201527  )
       237           Li  tau( 237) = (   0.6381494   0.1012942   1.6205092  )
       238           Li  tau( 238) = (   0.5721727   0.0116574   1.5310173  )
       239           Li  tau( 239) = (   0.3249966   0.5774172   1.7100187  )
       240           Cr  tau( 240) = (   0.8393703   0.1100927   1.7191999  )
       241           Cr  tau( 241) = (   0.6676040   0.1888979   1.4521033  )
       242           N   tau( 242) = (  -0.0700723   0.1140498   1.7488474  )
       243           N   tau( 243) = (   0.8338300   0.0904849   1.6240917  )
       244           N   tau( 244) = (   0.5696094   0.2036989   1.4290714  )
       245           N   tau( 245) = (   0.7046678   0.1031574   1.4200305  )
       246           N   tau( 246) = (   0.7256309   0.2686575   1.4183415  )
       247           N   tau( 247) = (   0.7919565   0.0327297   1.7655501  )
       248           N   tau( 248) = (   0.8040364   0.2032045   1.7475091  )
       249           N   tau( 249) = (   0.6794034   0.1842495   1.5575031  )
       250           O   tau( 250) = (   0.3439452   0.5791535   1.6026553  )
       251           Li  tau( 251) = (   0.7593284   0.3759836   0.8766270  )
       252           Li  tau( 252) = (   0.6280565   0.4696050   0.8766270  )
       253           Li  tau( 253) = (   0.6126161   0.3091127   0.8766270  )
       254           Li  tau( 254) = (   0.4035114   0.4857437   1.2875838  )
       255           Li  tau( 255) = (   0.5397392   0.4061407   1.2814884  )
       256           Li  tau( 256) = (   0.5467131   0.5625590   1.2975949  )
       257           Li  tau( 257) = (   0.5669941   0.3791318   1.0336250  )
       258           Li  tau( 258) = (   0.7214991   0.3014656   1.0336250  )
       259           Li  tau( 259) = (   0.7115055   0.4741032   1.0336250  )
       260           Li  tau( 260) = (   0.6056674   0.4949483   1.1109026  )
       261           Li  tau( 261) = (   0.4414804   0.5801067   1.1288968  )
       262           Li  tau( 262) = (   0.4535726   0.3889132   1.1362488  )
       263           Li  tau( 263) = (   0.5000000   0.2886750   0.9626942  )
       264           Li  tau( 264) = (   0.5087078   0.2725912   1.1848841  )
       265           Cr  tau( 265) = (   0.6697313   0.3923852   1.2055199  )
       266           Cr  tau( 266) = (   0.5000000   0.4811250   0.9478909  )
       267           N   tau( 267) = (   0.7578674   0.3861466   1.2507188  )
       268           N   tau( 268) = (   0.6752774   0.3848112   1.0995883  )
       269           N   tau( 269) = (   0.4030661   0.4869528   0.9168466  )
       270           N   tau( 270) = (   0.5434199   0.3942641   0.9168466  )
       271           N   tau( 271) = (   0.5535140   0.5621587   0.9168466  )
       272           N   tau( 272) = (   0.6164149   0.3063905   1.2373414  )
       273           N   tau( 273) = (   0.6286759   0.4771837   1.2330927  )
       274           N   tau( 274) = (   0.5000000   0.4811250   1.0497374  )
       275           O   tau( 275) = (   0.4883221   0.2881905   1.0830083  )
       276           Li  tau( 276) = (   0.7791285   0.3672833   1.3721491  )
       277           Li  tau( 277) = (   0.6298623   0.4591579   1.3658725  )
       278           Li  tau( 278) = (   0.6154447   0.3046454   1.3970745  )
       279           Li  tau( 279) = (   0.4068116   0.4769026   1.7912177  )
       280           Li  tau( 280) = (   0.5407666   0.4061302   1.7680865  )
       281           Li  tau( 281) = (   0.5564781   0.5511599   1.8047295  )
       282           Li  tau( 282) = (   0.5663343   0.3984924   1.5418057  )
       283           Li  tau( 283) = (   0.7200263   0.2881882   1.5344478  )
       284           Li  tau( 284) = (   0.7309549   0.4188641   1.5201238  )
       285           Li  tau( 285) = (   0.6068187   0.4944585   1.6191943  )
       286           Li  tau( 286) = (   0.4483947   0.5781629   1.6438333  )
       287           Li  tau( 287) = (   0.4547228   0.4110229   1.6359963  )
       288           Li  tau( 288) = (   0.5080953   0.3029301   1.4819028  )
       289           Li  tau( 289) = (   0.5032856   0.2868464   1.7005102  )
       290           Cr  tau( 290) = (   0.6684514   0.3912006   1.7103109  )
       291           Cr  tau( 291) = (   0.5023499   0.4818351   1.4415546  )
       292           N   tau( 292) = (   0.7699239   0.3916395   1.7389707  )
       293           N   tau( 293) = (   0.6732028   0.3875106   1.6077514  )
       294           N   tau( 294) = (   0.4045844   0.4755018   1.4123746  )
       295           N   tau( 295) = (   0.5486195   0.3941870   1.4184175  )
       296           N   tau( 296) = (   0.5571011   0.5583483   1.4211409  )
       297           N   tau( 297) = (   0.6257246   0.3058879   1.7432428  )
       298           N   tau( 298) = (   0.6346253   0.4754579   1.7473864  )
       299           N   tau( 299) = (   0.4993776   0.4855479   1.5499934  )
       300           O   tau( 300) = (   0.5177400   0.2994119   1.5882786  )

   Crystallographic axes

     site n.     atom                  positions (cryst. coord.)
         1           Li  tau(   1) = (  0.3097346  0.1512218  0.3321863  )
         2           Li  tau(   2) = (  0.2325188  0.3133799  0.3321863  )
         3           Li  tau(   3) = (  0.1244139  0.0353984  0.3321863  )
         4           Li  tau(   4) = (  0.0193345  0.3667078  0.4841969  )
         5           Li  tau(   5) = (  0.1081797  0.1610861  0.4855677  )
         6           Li  tau(   6) = (  0.2156067  0.4669258  0.4846243  )
         7           Li  tau(   7) = (  0.1192194  0.1566758  0.3916786  )
         8           Li  tau(   8) = (  0.2288830  0.0221536  0.3916786  )
         9           Li  tau(   9) = (  0.3185643  0.3211711  0.3916786  )
        10           Li  tau(  10) = (  0.2266186  0.3534788  0.4225697  )
        11           Li  tau(  11) = (  0.1041367  0.4697044  0.4253667  )
        12           Li  tau(  12) = (  0.0146122  0.1943970  0.4273355  )
        13           Li  tau(  13) = (  0.0000000  0.0000000  0.3648003  )
        14           Li  tau(  14) = ( -0.0237626  0.0007862  0.4516781  )
        15           Cr  tau(  15) = (  0.2281131  0.1823300  0.4575334  )
        16           Cr  tau(  16) = (  0.1111111  0.3333332  0.3591908  )
        17           N   tau(  17) = (  0.3101223  0.1460452  0.4727409  )
        18           N   tau(  18) = (  0.2413513  0.1855894  0.4190751  )
        19           N   tau(  19) = (  0.0175419  0.3434273  0.3474270  )
        20           N   tau(  20) = (  0.1043816  0.1828847  0.3474270  )
        21           N   tau(  21) = (  0.2114100  0.4736876  0.3474270  )
        22           N   tau(  22) = (  0.1235334  0.0339440  0.4657517  )
        23           N   tau(  23) = (  0.2342374  0.3201153  0.4719680  )
        24           N   tau(  24) = (  0.1111111  0.3333332  0.3977842  )
        25           O   tau(  25) = (  0.9998098  1.0035778  0.4098846  )
        26           Li  tau(  26) = (  0.3190790  0.1522128  0.5192160  )
        27           Li  tau(  27) = (  0.2202482  0.3041310  0.5188550  )
        28           Li  tau(  28) = (  0.1231958  0.0290108  0.5218513  )
        29           Li  tau(  29) = (  0.0348912  0.3821698  0.6775404  )
        30           Li  tau(  30) = (  0.1221121  0.2170438  0.6756846  )
        31           Li  tau(  31) = (  0.2397507  0.5142177  0.6783974  )
        32           Li  tau(  32) = (  0.1269328  0.1949061  0.5878080  )
        33           Li  tau(  33) = (  0.2408522  0.0491563  0.5882775  )
        34           Li  tau(  34) = (  0.3206580  0.3188419  0.5854872  )
        35           Li  tau(  35) = (  0.2214742  0.3350722  0.6190579  )
        36           Li  tau(  36) = (  0.1062518  0.5246155  0.6135724  )
        37           Li  tau(  37) = (  0.0223527  0.1982141  0.6166617  )
        38           Li  tau(  38) = (  0.0064082  0.9670056  0.5614834  )
        39           Li  tau(  39) = (  1.0020535  0.0303626  0.6467534  )
        40           Cr  tau(  40) = (  0.2387549  0.1872080  0.6516675  )
        41           Cr  tau(  41) = (  0.1125321  0.3413350  0.5469381  )
        42           N   tau(  42) = (  0.3363007  0.1769743  0.6612611  )
        43           N   tau(  43) = (  0.2250278  0.1759073  0.6127442  )
        44           N   tau(  44) = (  0.0282185  0.3644677  0.5277067  )
        45           N   tau(  45) = (  0.1049299  0.1864691  0.5342507  )
        46           N   tau(  46) = (  0.2035027  0.4863710  0.5363147  )
        47           N   tau(  47) = (  0.1391291  0.0535486  0.6685559  )
        48           N   tau(  48) = (  0.2423607  0.3410910  0.6613674  )
        49           N   tau(  49) = (  0.1124108  0.3519929  0.5881380  )
        50           O   tau(  50) = (  0.0139820  0.0184224  0.6032259  )
        51           Li  tau(  51) = (  0.3097348  0.6512226  0.3321863  )
        52           Li  tau(  52) = (  0.2325186  0.8133797  0.3321863  )
        53           Li  tau(  53) = (  0.1244139  0.5353989  0.3321863  )
        54           Li  tau(  54) = (  0.0244216  0.8704063  0.4821219  )
        55           Li  tau(  55) = (  0.1033013  0.6965174  0.4854969  )
        56           Li  tau(  56) = (  0.1926356  0.9607772  0.4892284  )
        57           Li  tau(  57) = (  0.1192194  0.6566756  0.3916786  )
        58           Li  tau(  58) = (  0.2288831  0.5221537  0.3916786  )
        59           Li  tau(  59) = (  0.3185642  0.8211709  0.3916786  )
        60           Li  tau(  60) = (  0.2061233  0.8628823  0.4262415  )
        61           Li  tau(  61) = (  0.0995117  0.9793833  0.4241797  )
        62           Li  tau(  62) = (  0.0234912  0.6871946  0.4214802  )
        63           Li  tau(  63) = ( -0.0000001  0.4999998  0.3648003  )
        64           Li  tau(  64) = (  0.0069335  0.5146236  0.4551439  )
        65           Cr  tau(  65) = (  0.2203049  0.6661744  0.4603061  )
        66           Cr  tau(  66) = (  0.1111110  0.8333330  0.3591908  )
        67           N   tau(  67) = (  0.3189578  0.6611993  0.4722205  )
        68           N   tau(  68) = (  0.2208610  0.6515901  0.4196354  )
        69           N   tau(  69) = (  0.0175418  0.8434271  0.3474270  )
        70           N   tau(  70) = (  0.1043818  0.6828855  0.3474270  )
        71           N   tau(  71) = (  0.2114098  0.9736874  0.3474270  )
        72           N   tau(  72) = (  0.1293219  0.5286442  0.4720411  )
        73           N   tau(  73) = (  0.2284633  0.8081828  0.4740077  )
        74           N   tau(  74) = (  0.1111110  0.8333330  0.3977842  )
        75           O   tau(  75) = (  0.0014973  0.5117469  0.4079912  )
        76           Li  tau(  76) = (  0.3106607  0.6491192  0.5143262  )
        77           Li  tau(  77) = (  0.2435601  0.8384701  0.5192160  )
        78           Li  tau(  78) = (  0.1262470  0.5451205  0.5162706  )
        79           Li  tau(  79) = (  0.0429406  0.8804680  0.6637613  )
        80           Li  tau(  80) = (  0.1014473  0.6876927  0.6751066  )
        81           Li  tau(  81) = (  0.2280233  0.9876300  0.6807028  )
        82           Li  tau(  82) = (  0.0985678  0.6640376  0.5834010  )
        83           Li  tau(  83) = (  0.2302869  0.5084206  0.5826503  )
        84           Li  tau(  84) = (  0.2213678  0.6755670  0.5564541  )
        85           Li  tau(  85) = (  0.2048152  0.8559687  0.6120089  )
        86           Li  tau(  86) = (  0.0932203  0.9873111  0.6172575  )
        87           Li  tau(  87) = (  0.0099308  0.6790643  0.6180215  )
        88           Li  tau(  88) = (  0.0064954  0.5032703  0.5527048  )
        89           Li  tau(  89) = (  1.0204308  0.5197932  0.6428269  )
        90           Cr  tau(  90) = (  0.2235438  0.6864557  0.6445742  )
        91           Cr  tau(  91) = (  0.1211405  0.8459364  0.5460611  )
        92           N   tau(  92) = (  0.3213006  0.6781968  0.6570135  )
        93           N   tau(  93) = (  0.2162994  0.6841488  0.6060141  )
        94           N   tau(  94) = (  0.0258084  0.8314401  0.5314449  )
        95           N   tau(  95) = (  0.1185233  0.6920666  0.5392358  )
        96           N   tau(  96) = (  0.2115175  0.9787040  0.5315999  )
        97           N   tau(  97) = (  0.1311437  0.5396928  0.6596754  )
        98           N   tau(  98) = (  0.2167719  0.8229039  0.6601870  )
        99           N   tau(  99) = (  0.1054469  0.8411141  0.5867406  )
       100           O   tau( 100) = (  1.0088112  0.5087962  0.5973108  )
       101           Li  tau( 101) = (  0.6430655  0.1512218  0.3321863  )
       102           Li  tau( 102) = (  0.5658521  0.3133799  0.3321863  )
       103           Li  tau( 103) = (  0.4577472  0.0353984  0.3321863  )
       104           Li  tau( 104) = (  0.3475722  0.3340357  0.4913079  )
       105           Li  tau( 105) = (  0.4294349  0.1963658  0.4801287  )
       106           Li  tau( 106) = (  0.5754864  0.4535197  0.4875343  )
       107           Li  tau( 107) = (  0.4525527  0.1566758  0.3916786  )
       108           Li  tau( 108) = (  0.5622164  0.0221536  0.3916786  )
       109           Li  tau( 109) = (  0.6518976  0.3211711  0.3916786  )
       110           Li  tau( 110) = (  0.5497796  0.3315213  0.4227602  )
       111           Li  tau( 111) = (  0.4732708  0.4987335  0.4258340  )
       112           Li  tau( 112) = (  0.3445661  0.1575271  0.4207028  )
       113           Li  tau( 113) = (  0.3333333  0.0000000  0.3648003  )
       114           Li  tau( 114) = (  0.3280144  0.9839434  0.4647330  )
       115           Cr  tau( 115) = (  0.5627085  0.1591882  0.4569266  )
       116           Cr  tau( 116) = (  0.4444444  0.3333332  0.3591908  )
       117           N   tau( 117) = (  0.6544114  0.1465827  0.4697424  )
       118           N   tau( 118) = (  0.5545937  0.1588895  0.4183554  )
       119           N   tau( 119) = (  0.3508752  0.3434273  0.3474270  )
       120           N   tau( 120) = (  0.4377148  0.1828847  0.3474270  )
       121           N   tau( 121) = (  0.5447432  0.4736876  0.3474270  )
       122           N   tau( 122) = (  0.4472160  0.0071342  0.4701609  )
       123           N   tau( 123) = (  0.5645317  0.3050198  0.4679951  )
       124           N   tau( 124) = (  0.4444444  0.3333332  0.3977842  )
       125           O   tau( 125) = (  0.3225017 -0.0249750  0.4079425  )
       126           Li  tau( 126) = (  0.6527141  0.1500466  0.5225534  )
       127           Li  tau( 127) = (  0.5707194  0.3169906  0.5276225  )
       128           Li  tau( 128) = (  0.4481979  0.0381476  0.5212135  )
       129           Li  tau( 129) = (  0.3749638  0.3748756  0.6765505  )
       130           Li  tau( 130) = (  0.4558055  0.2054405  0.6776777  )
       131           Li  tau( 131) = (  0.5579571  0.4754013  0.6761452  )
       132           Li  tau( 132) = (  0.4515360  0.1562081  0.5830998  )
       133           Li  tau( 133) = (  0.4756241  0.9973829  0.6220432  )
       134           Li  tau( 134) = (  0.6504956  0.3077711  0.5829005  )
       135           Li  tau( 135) = (  0.5550150  0.3344568  0.6179263  )
       136           Li  tau( 136) = (  0.4449907  0.4611783  0.6179993  )
       137           Li  tau( 137) = (  0.3459752  0.1865086  0.6164956  )
       138           Li  tau( 138) = (  0.3264653 -0.0033082  0.5551497  )
       139           Li  tau( 139) = (  0.3360617 -0.0104343  0.6455132  )
       140           Cr  tau( 140) = (  0.5683406  0.1761685  0.6487841  )
       141           Cr  tau( 141) = (  0.4416643  0.3243303  0.5490175  )
       142           N   tau( 142) = (  0.6523254  0.1613463  0.6629818  )
       143           N   tau( 143) = (  0.5658421  0.1838160  0.6108994  )
       144           N   tau( 144) = (  0.3535783  0.3355540  0.5335709  )
       145           N   tau( 145) = (  0.4376307  0.1815506  0.5418910  )
       146           N   tau( 146) = (  0.5476033  0.4524416  0.5382458  )
       147           N   tau( 147) = (  0.4649110  0.0374566  0.6645564  )
       148           N   tau( 148) = (  0.5721858  0.3240074  0.6629264  )
       149           N   tau( 149) = (  0.4460696  0.3411386  0.5899274  )
       150           O   tau( 150) = (  0.3327871  0.0196442  0.5985864  )
       151           Li  tau( 151) = (  0.6430682  0.6512226  0.3321863  )
       152           Li  tau( 152) = (  0.5658520  0.8133797  0.3321863  )
       153           Li  tau( 153) = (  0.4577474  0.5353989  0.3321863  )
       154           Li  tau( 154) = (  0.3535292  0.8478040  0.4907499  )
       155           Li  tau( 155) = (  0.4516719  0.6745447  0.4900168  )
       156           Li  tau( 156) = (  0.5265873  0.9527826  0.4867326  )
       157           Li  tau( 157) = (  0.4525527  0.6566756  0.3916786  )
       158           Li  tau( 158) = (  0.5622164  0.5221537  0.3916786  )
       159           Li  tau( 159) = (  0.6518976  0.8211709  0.3916786  )
       160           Li  tau( 160) = (  0.5517149  0.8469648  0.4254952  )
       161           Li  tau( 161) = (  0.4241471  0.9811101  0.4281571  )
       162           Li  tau( 162) = (  0.3423298  0.6723744  0.4292400  )
       163           Li  tau( 163) = (  0.3333333  0.4999998  0.3648003  )
       164           Li  tau( 164) = (  0.3394702  0.4805982  0.4575135  )
       165           Cr  tau( 165) = (  0.5612978  0.6667484  0.4609682  )
       166           Cr  tau( 166) = (  0.4444443  0.8333330  0.3591908  )
       167           N   tau( 167) = (  0.6603604  0.6608004  0.4730864  )
       168           N   tau( 168) = (  0.5569508  0.6670865  0.4232297  )
       169           N   tau( 169) = (  0.3508751  0.8434271  0.3474270  )
       170           N   tau( 170) = (  0.4377151  0.6828855  0.3474270  )
       171           N   tau( 171) = (  0.5447431  0.9736874  0.3474270  )
       172           N   tau( 172) = (  0.4552009  0.5241337  0.4704931  )
       173           N   tau( 173) = (  0.5592673  0.8071220  0.4785830  )
       174           N   tau( 174) = (  0.4444443  0.8333330  0.3977842  )
       175           O   tau( 175) = (  0.3310753  0.5259294  0.4032741  )
       176           Li  tau( 176) = (  0.6507592  0.6150987  0.5250425  )
       177           Li  tau( 177) = (  0.5586347  0.8130122  0.5245487  )
       178           Li  tau( 178) = (  0.4514912  0.4947078  0.5155509  )
       179           Li  tau( 179) = (  0.3668997  0.8509409  0.6768007  )
       180           Li  tau( 180) = (  0.4295871  0.6892991  0.6699798  )
       181           Li  tau( 181) = (  0.5491713  0.9843999  0.6836814  )
       182           Li  tau( 182) = (  0.4612753  0.6822245  0.5819660  )
       183           Li  tau( 183) = (  0.5512259  0.5109279  0.5781813  )
       184           Li  tau( 184) = (  0.6765710  0.8663553  0.5832084  )
       185           Li  tau( 185) = (  0.5461568  0.8336498  0.6150451  )
       186           Li  tau( 186) = (  0.3480264  0.8724338  0.5863708  )
       187           Li  tau( 187) = (  0.3393502  0.6805493  0.6112227  )
       188           Li  tau( 188) = (  0.3393803  0.5024737  0.5498967  )
       189           Li  tau( 189) = (  0.3227565  0.4857879  0.6360924  )
       190           Cr  tau( 190) = (  0.5571379  0.6773607  0.6486468  )
       191           Cr  tau( 191) = (  0.4415614  0.8424816  0.5520382  )
       192           N   tau( 192) = (  0.6533072  0.6601607  0.6597574  )
       193           N   tau( 193) = (  0.5530707  0.6795411  0.6102151  )
       194           N   tau( 194) = (  0.3468392  0.8536487  0.5409233  )
       195           N   tau( 195) = (  0.4348646  0.6866541  0.5382348  )
       196           N   tau( 196) = (  0.5384587  0.9705504  0.5366956  )
       197           N   tau( 197) = (  0.4512849  0.5324482  0.6618723  )
       198           N   tau( 198) = (  0.5675899  0.8250802  0.6649373  )
       199           N   tau( 199) = (  0.4472447  0.8384995  0.5949456  )
       200           O   tau( 200) = (  0.3279923  0.4868751  0.5968346  )
       201           Li  tau( 201) = (  0.9764000  0.1512218  0.3321863  )
       202           Li  tau( 202) = (  0.8991866  0.3133799  0.3321863  )
       203           Li  tau( 203) = (  0.7910799  0.0353984  0.3321863  )
       204           Li  tau( 204) = (  0.6920298  0.3508156  0.4893170  )
       205           Li  tau( 205) = (  0.7721063  0.2037531  0.4854194  )
       206           Li  tau( 206) = (  0.8739949  0.4934820  0.4892882  )
       207           Li  tau( 207) = (  0.7858861  0.1566758  0.3916786  )
       208           Li  tau( 208) = (  0.8955479  0.0221536  0.3916786  )
       209           Li  tau( 209) = (  0.9852327  0.3211711  0.3916786  )
       210           Li  tau( 210) = (  0.8785893  0.3550124  0.4260710  )
       211           Li  tau( 211) = (  0.7862988  0.5081615  0.4223084  )
       212           Li  tau( 212) = (  0.6772604  0.1809939  0.4227956  )
       213           Li  tau( 213) = (  0.6666690  0.0000000  0.3648003  )
       214           Li  tau( 214) = (  0.6646617  0.9752270  0.4608464  )
       215           Cr  tau( 215) = (  0.8937637  0.1791698  0.4594800  )
       216           Cr  tau( 216) = (  0.7777800  0.3333332  0.3591908  )
       217           N   tau( 217) = (  0.9774466  0.1480849  0.4710955  )
       218           N   tau( 218) = (  0.8976992  0.1806497  0.4216307  )
       219           N   tau( 219) = (  0.6842085  0.3434273  0.3474270  )
       220           N   tau( 220) = (  0.7710469  0.1828847  0.3474270  )
       221           N   tau( 221) = (  0.8780741  0.4736876  0.3474270  )
       222           N   tau( 222) = (  0.7923142  0.0391714  0.4732901  )
       223           N   tau( 223) = (  0.9009522  0.3192377  0.4748824  )
       224           N   tau( 224) = (  0.7777800  0.3333332  0.3977842  )
       225           O   tau( 225) = (  0.6606986 -0.0052000  0.4066580  )
       226           Li  tau( 226) = (  0.9704537  0.1495304  0.5307274  )
       227           Li  tau( 227) = (  0.8941569  0.3288500  0.5170081  )
       228           Li  tau( 228) = (  0.7727356  0.0232850  0.5216963  )
       229           Li  tau( 229) = (  0.6845876  0.3739808  0.6774762  )
       230           Li  tau( 230) = (  0.7510361  0.1413666  0.6794693  )
       231           Li  tau( 231) = (  0.8897222  0.4925193  0.6767941  )
       232           Li  tau( 232) = (  0.7550055  0.1124590  0.5795787  )
       233           Li  tau( 233) = (  0.8880795  0.0083743  0.5852347  )
       234           Li  tau( 234) = (  0.9918601  0.3223109  0.5834121  )
       235           Li  tau( 235) = (  0.8776371  0.3139700  0.6154481  )
       236           Li  tau( 236) = (  0.7745666  0.4828534  0.6139356  )
       237           Li  tau( 237) = (  0.6966316  0.1754468  0.6140707  )
       238           Li  tau( 238) = (  0.5789031  0.0201912  0.5801589  )
       239           Li  tau( 239) = (  0.6583686  1.0001160  0.6479891  )
       240           Cr  tau( 240) = (  0.9029323  0.1906861  0.6514682  )
       241           Cr  tau( 241) = (  0.7766643  0.3271808  0.5502555  )
       242           N   tau( 242) = ( -0.0042256  0.1975400  0.6627028  )
       243           N   tau( 243) = (  0.8860715  0.1567244  0.6154282  )
       244           N   tau( 244) = (  0.6872150  0.3528168  0.5415278  )
       245           N   tau( 245) = (  0.7642258  0.1786738  0.5381019  )
       246           N   tau( 246) = (  0.8807404  0.4653285  0.5374619  )
       247           N   tau( 247) = (  0.8108530  0.0566895  0.6690320  )
       248           N   tau( 248) = (  0.9213566  0.3519605  0.6621956  )
       249           N   tau( 249) = (  0.7857799  0.3191294  0.5901953  )
       250           O   tau( 250) = (  0.6783196  1.0031234  0.6073052  )
       251           Li  tau( 251) = (  0.9764026  0.6512226  0.3321863  )
       252           Li  tau( 252) = (  0.8991830  0.8133797  0.3321863  )
       253           Li  tau( 253) = (  0.7910824  0.5353989  0.3321863  )
       254           Li  tau( 254) = (  0.6839556  0.8413327  0.4879130  )
       255           Li  tau( 255) = (  0.7742247  0.7034563  0.4856032  )
       256           Li  tau( 256) = (  0.8715067  0.9743808  0.4917065  )
       257           Li  tau( 257) = (  0.7858860  0.6566756  0.3916786  )
       258           Li  tau( 258) = (  0.8955503  0.5221537  0.3916786  )
       259           Li  tau( 259) = (  0.9852291  0.8211709  0.3916786  )
       260           Li  tau( 260) = (  0.8914259  0.8572755  0.4209619  )
       261           Li  tau( 261) = (  0.7764052  1.0047743  0.4277806  )
       262           Li  tau( 262) = (  0.6781118  0.6736174  0.4305666  )
       263           Li  tau( 263) = (  0.6666666  0.4999998  0.3648003  )
       264           Li  tau( 264) = (  0.6660884  0.4721419  0.4489963  )
       265           Cr  tau( 265) = (  0.8962750  0.6796312  0.4568159  )
       266           Cr  tau( 266) = (  0.7777776  0.8333330  0.3591908  )
       267           N   tau( 267) = (  0.9808092  0.6688255  0.4739434  )
       268           N   tau( 268) = (  0.8974483  0.6665125  0.4166745  )
       269           N   tau( 269) = (  0.6842084  0.8434271  0.3474270  )
       270           N   tau( 270) = (  0.7710484  0.6828855  0.3474270  )
       271           N   tau( 271) = (  0.8780764  0.9736874  0.3474270  )
       272           N   tau( 272) = (  0.7933095  0.5306839  0.4688743  )
       273           N   tau( 273) = (  0.9041781  0.8265064  0.4672643  )
       274           N   tau( 274) = (  0.7777776  0.8333330  0.3977842  )
       275           O   tau( 275) = (  0.6547090  0.4991606  0.4103918  )
       276           Li  tau( 276) = (  0.9911796  0.6361534  0.5199579  )
       277           Li  tau( 277) = (  0.8949573  0.7952848  0.5175794  )
       278           Li  tau( 278) = (  0.7913318  0.5276613  0.5294030  )
       279           Li  tau( 279) = (  0.6821514  0.8260195  0.6787584  )
       280           Li  tau( 280) = (  0.7752460  0.7034381  0.6699931  )
       281           Li  tau( 281) = (  0.8746904  0.9546370  0.6838785  )
       282           Li  tau( 282) = (  0.7964040  0.6902091  0.5842470  )
       283           Li  tau( 283) = (  0.8864119  0.4991566  0.5814588  )
       284           Li  tau( 284) = (  0.9727862  0.7254938  0.5760309  )
       285           Li  tau( 285) = (  0.8922945  0.8564273  0.6135724  )
       286           Li  tau( 286) = (  0.7821972  1.0014076  0.6229091  )
       287           Li  tau( 287) = (  0.6920270  0.7119126  0.6199393  )
       288           Li  tau( 288) = (  0.6829921  0.5246904  0.5615476  )
       289           Li  tau( 289) = (  0.6688964  0.4968325  0.6443860  )
       290           Cr  tau( 290) = (  0.8943112  0.6775794  0.6480998  )
       291           Cr  tau( 291) = (  0.7805375  0.8345629  0.5462582  )
       292           N   tau( 292) = (  0.9960371  0.6783396  0.6589601  )
       293           N   tau( 293) = (  0.8969321  0.6711881  0.6092363  )
       294           N   tau( 294) = (  0.6791154  0.8235932  0.5352008  )
       295           N   tau( 295) = (  0.7762034  0.6827519  0.5374907  )
       296           N   tau( 296) = (  0.8794636  0.9670876  0.5385227  )
       297           N   tau( 297) = (  0.8023291  0.5298133  0.6605790  )
       298           N   tau( 298) = (  0.9091311  0.8235173  0.6621491  )
       299           N   tau( 299) = (  0.7797088  0.8409936  0.5873496  )
       300           O   tau( 300) = (  0.6906055  0.5185967  0.6018573  )

     number of k points=     1  Gaussian smearing, width (Ry)=  0.0147
                       cart. coord. in units 2pi/alat
        k(    1) = (   0.0000000   0.0000000   0.0000000), wk =   2.0000000

                       cryst. coord.
        k(    1) = (   0.0000000   0.0000000   0.0000000), wk =   2.0000000

     Dense  grid:  5457965 G-vectors     FFT dimensions: ( 240, 160, 640)

     Smooth grid:  2970742 G-vectors     FFT dimensions: ( 200, 135, 540)

     Dynamical RAM for                 wfc:    1182.84 MB

     Dynamical RAM for     wfc (w. buffer):    1182.84 MB

     Dynamical RAM for           str. fact:      83.28 MB

     Dynamical RAM for           local pot:       0.00 MB

     Dynamical RAM for          nlocal pot:    3977.76 MB

     Dynamical RAM for                qrad:       7.46 MB

     Dynamical RAM for          rho,v,vnew:     203.09 MB

     Dynamical RAM for               rhoin:      67.70 MB

     Dynamical RAM for            rho*nmix:     333.13 MB

     Dynamical RAM for           G-vectors:      83.74 MB

     Dynamical RAM for          h,s,v(r/c):      63.83 MB

     Dynamical RAM for          <psi|beta>:      17.89 MB

     Dynamical RAM for                 psi:    2365.69 MB

     Dynamical RAM for                hpsi:    2365.69 MB

     Dynamical RAM for                spsi:    2365.69 MB

     Dynamical RAM for      wfcinit/wfcrot:    4336.08 MB

     Dynamical RAM for           addusdens:    7370.47 MB

     Dynamical RAM for          addusforce:   14335.60 MB

     Dynamical RAM for         addusstress:    4184.93 MB

     Estimated static dynamical RAM per process >       5.81 GB

     Estimated max dynamical RAM per process >      20.13 GB

     Estimated total dynamical RAM >      80.52 GB

     Check: negative core charge=   -0.000002

     Initial potential from superposition of free atoms

     starting charge    1292.2742, renormalised to    1392.0000

     negative rho (up, down):  2.576E-02 0.000E+00
     Starting wfcs are 1512 randomized atomic wfcs
     Checking if some PAW data can be deallocated... 

     total cpu time spent up to now is       35.0 secs

     per-process dynamical memory:  1708.6 Mb

     Self-consistent Calculation
[tb_dev] Currently allocated     1.26E+02 Mbytes, locked:    0 /  11
[tb_pin] Currently allocated     0.00E+00 Mbytes, locked:    0 /   0

     iteration #  1     ecut=    90.00 Ry     beta= 0.20
     Davidson diagonalization with overlap

---- Real-time Memory Report at c_bands before calling an iterative solver
         10171 MiB given to the printing process from OS
          1746 MiB allocation reported by mallinfo(arena+hblkhd)
        465853 MiB available memory on the node where the printing process lives
     GPU memory used/free/total (MiB): 16367 / 48601 / 64969
------------------
     ethr =  1.00E-02,  avg # of iterations =  3.0

     negative rho (up, down):  4.095E-02 0.000E+00

     total cpu time spent up to now is       38.9 secs

     total energy              =   -9071.75397507 Ry
     estimated scf accuracy    <     235.50249500 Ry
[tb_dev] Currently allocated     2.41E+01 Mbytes, locked:    0 /   6
[tb_pin] Currently allocated     0.00E+00 Mbytes, locked:    0 /   0

     iteration #  2     ecut=    90.00 Ry     beta= 0.20
     Davidson diagonalization with overlap

---- Real-time Memory Report at c_bands before calling an iterative solver
         10502 MiB given to the printing process from OS
          2013 MiB allocation reported by mallinfo(arena+hblkhd)
        464886 MiB available memory on the node where the printing process lives
     GPU memory used/free/total (MiB): 31251 / 33717 / 64969
------------------
     ethr =  1.00E-02,  avg # of iterations =  4.0

     negative rho (up, down):  6.460E-02 0.000E+00

     total cpu time spent up to now is       42.7 secs

     total energy              =   -9067.45596224 Ry
     estimated scf accuracy    <      46.27271691 Ry
[tb_dev] Currently allocated     2.41E+01 Mbytes, locked:    0 /   6
[tb_pin] Currently allocated     0.00E+00 Mbytes, locked:    0 /   0

     iteration #  3     ecut=    90.00 Ry     beta= 0.20
     Davidson diagonalization with overlap

---- Real-time Memory Report at c_bands before calling an iterative solver
         10537 MiB given to the printing process from OS
         -2047 MiB allocation reported by mallinfo(arena+hblkhd)
        464744 MiB available memory on the node where the printing process lives
     GPU memory used/free/total (MiB): 31251 / 33717 / 64969
------------------
     ethr =  3.32E-03,  avg # of iterations =  7.0

     negative rho (up, down):  5.532E-02 0.000E+00

     total cpu time spent up to now is       48.2 secs

     total energy              =   -9118.30023381 Ry
     estimated scf accuracy    <     614.65012444 Ry
[tb_dev] Currently allocated     2.41E+01 Mbytes, locked:    0 /   6
[tb_pin] Currently allocated     0.00E+00 Mbytes, locked:    0 /   0

     iteration #  4     ecut=    90.00 Ry     beta= 0.20
     Davidson diagonalization with overlap

---- Real-time Memory Report at c_bands before calling an iterative solver
         10540 MiB given to the printing process from OS
         -2023 MiB allocation reported by mallinfo(arena+hblkhd)
        464552 MiB available memory on the node where the printing process lives
     GPU memory used/free/total (MiB): 31251 / 33717 / 64969
------------------
     ethr =  3.32E-03,  avg # of iterations =  1.0

     negative rho (up, down):  4.582E-02 0.000E+00

     total cpu time spent up to now is       51.6 secs

     total energy              =   -9093.08640080 Ry
     estimated scf accuracy    <     709.23888743 Ry
[tb_dev] Currently allocated     2.41E+01 Mbytes, locked:    0 /   6
[tb_pin] Currently allocated     0.00E+00 Mbytes, locked:    0 /   0

     iteration #  5     ecut=    90.00 Ry     beta= 0.20
     Davidson diagonalization with overlap

---- Real-time Memory Report at c_bands before calling an iterative solver
         10563 MiB given to the printing process from OS
         -2000 MiB allocation reported by mallinfo(arena+hblkhd)
        464458 MiB available memory on the node where the printing process lives
     GPU memory used/free/total (MiB): 31251 / 33717 / 64969
------------------
     ethr =  3.32E-03,  avg # of iterations =  2.0

     negative rho (up, down):  3.756E-02 0.000E+00

     total cpu time spent up to now is       55.1 secs

     total energy              =   -9088.69576202 Ry
     estimated scf accuracy    <      98.21931228 Ry
[tb_dev] Currently allocated     2.41E+01 Mbytes, locked:    0 /   6
[tb_pin] Currently allocated     0.00E+00 Mbytes, locked:    0 /   0

     iteration #  6     ecut=    90.00 Ry     beta= 0.20
     Davidson diagonalization with overlap

---- Real-time Memory Report at c_bands before calling an iterative solver
         10587 MiB given to the printing process from OS
         -1977 MiB allocation reported by mallinfo(arena+hblkhd)
        464269 MiB available memory on the node where the printing process lives
     GPU memory used/free/total (MiB): 31251 / 33717 / 64969
------------------
     ethr =  3.32E-03,  avg # of iterations =  2.0

     negative rho (up, down):  2.869E-02 0.000E+00

     total cpu time spent up to now is       58.6 secs

     total energy              =   -9099.35747135 Ry
     estimated scf accuracy    <       5.32075052 Ry
[tb_dev] Currently allocated     2.41E+01 Mbytes, locked:    0 /   6
[tb_pin] Currently allocated     0.00E+00 Mbytes, locked:    0 /   0

     iteration #  7     ecut=    90.00 Ry     beta= 0.20
     Davidson diagonalization with overlap

---- Real-time Memory Report at c_bands before calling an iterative solver
         10610 MiB given to the printing process from OS
         -1953 MiB allocation reported by mallinfo(arena+hblkhd)
        464175 MiB available memory on the node where the printing process lives
     GPU memory used/free/total (MiB): 31251 / 33717 / 64969
------------------
     ethr =  3.82E-04,  avg # of iterations = 16.0

     negative rho (up, down):  3.101E-02 0.000E+00

     total cpu time spent up to now is       64.2 secs

     total energy              =   -9095.74909548 Ry
     estimated scf accuracy    <      77.19358371 Ry
[tb_dev] Currently allocated     2.41E+01 Mbytes, locked:    0 /   6
[tb_pin] Currently allocated     0.00E+00 Mbytes, locked:    0 /   0

     iteration #  8     ecut=    90.00 Ry     beta= 0.20
     Davidson diagonalization with overlap

---- Real-time Memory Report at c_bands before calling an iterative solver
         10634 MiB given to the printing process from OS
         -1930 MiB allocation reported by mallinfo(arena+hblkhd)
        464081 MiB available memory on the node where the printing process lives
     GPU memory used/free/total (MiB): 31613 / 33355 / 64969
------------------
     ethr =  3.82E-04,  avg # of iterations =  8.0

     negative rho (up, down):  3.331E-02 0.000E+00

     total cpu time spent up to now is       69.0 secs

     total energy              =   -9094.99696178 Ry
     estimated scf accuracy    <      20.73681909 Ry
[tb_dev] Currently allocated     2.41E+01 Mbytes, locked:    0 /   6
[tb_pin] Currently allocated     0.00E+00 Mbytes, locked:    0 /   0

     iteration #  9     ecut=    90.00 Ry     beta= 0.20
     Davidson diagonalization with overlap

---- Real-time Memory Report at c_bands before calling an iterative solver
         10657 MiB given to the printing process from OS
         -1906 MiB allocation reported by mallinfo(arena+hblkhd)
        463987 MiB available memory on the node where the printing process lives
     GPU memory used/free/total (MiB): 31613 / 33355 / 64969
------------------
     ethr =  3.82E-04,  avg # of iterations = 10.0

     negative rho (up, down):  3.549E-02 0.000E+00

     total cpu time spent up to now is       73.6 secs

     total energy              =   -9095.67113963 Ry
     estimated scf accuracy    <       2.01346696 Ry
[tb_dev] Currently allocated     2.41E+01 Mbytes, locked:    0 /   6
[tb_pin] Currently allocated     0.00E+00 Mbytes, locked:    0 /   0

     iteration # 10     ecut=    90.00 Ry     beta= 0.20
     Davidson diagonalization with overlap

---- Real-time Memory Report at c_bands before calling an iterative solver
         10681 MiB given to the printing process from OS
         -1883 MiB allocation reported by mallinfo(arena+hblkhd)
        463892 MiB available memory on the node where the printing process lives
     GPU memory used/free/total (MiB): 31613 / 33355 / 64969
------------------
     ethr =  1.45E-04,  avg # of iterations =  8.0

     negative rho (up, down):  3.366E-02 0.000E+00

     total cpu time spent up to now is       78.0 secs

     total energy              =   -9095.44450907 Ry
     estimated scf accuracy    <       5.50410406 Ry
[tb_dev] Currently allocated     2.41E+01 Mbytes, locked:    0 /   6
[tb_pin] Currently allocated     0.00E+00 Mbytes, locked:    0 /   0

     iteration # 11     ecut=    90.00 Ry     beta= 0.20
     Davidson diagonalization with overlap

---- Real-time Memory Report at c_bands before calling an iterative solver
         10681 MiB given to the printing process from OS
         -1883 MiB allocation reported by mallinfo(arena+hblkhd)
        464083 MiB available memory on the node where the printing process lives
     GPU memory used/free/total (MiB): 31813 / 33155 / 64969
------------------
     ethr =  1.45E-04,  avg # of iterations =  2.0

     negative rho (up, down):  3.437E-02 0.000E+00

     total cpu time spent up to now is       81.7 secs

     total energy              =   -9096.07833976 Ry
     estimated scf accuracy    <       0.82638210 Ry
[tb_dev] Currently allocated     2.41E+01 Mbytes, locked:    0 /   6
[tb_pin] Currently allocated     0.00E+00 Mbytes, locked:    0 /   0

     iteration # 12     ecut=    90.00 Ry     beta= 0.20
     Davidson diagonalization with overlap

---- Real-time Memory Report at c_bands before calling an iterative solver
         10681 MiB given to the printing process from OS
         -1883 MiB allocation reported by mallinfo(arena+hblkhd)
        463892 MiB available memory on the node where the printing process lives
     GPU memory used/free/total (MiB): 31813 / 33155 / 64969
------------------
     ethr =  5.94E-05,  avg # of iterations =  2.0

     negative rho (up, down):  3.567E-02 0.000E+00

     total cpu time spent up to now is       85.2 secs

     total energy              =   -9096.00277903 Ry
     estimated scf accuracy    <       0.58367497 Ry
[tb_dev] Currently allocated     2.41E+01 Mbytes, locked:    0 /   6
[tb_pin] Currently allocated     0.00E+00 Mbytes, locked:    0 /   0

     iteration # 13     ecut=    90.00 Ry     beta= 0.20
     Davidson diagonalization with overlap

---- Real-time Memory Report at c_bands before calling an iterative solver
         10681 MiB given to the printing process from OS
         -1883 MiB allocation reported by mallinfo(arena+hblkhd)
        463892 MiB available memory on the node where the printing process lives
     GPU memory used/free/total (MiB): 31813 / 33155 / 64969
------------------
     ethr =  4.19E-05,  avg # of iterations = 22.0

     negative rho (up, down):  3.718E-02 0.000E+00

     total cpu time spent up to now is       91.4 secs

     total energy              =   -9095.95229430 Ry
     estimated scf accuracy    <       0.40449212 Ry
[tb_dev] Currently allocated     2.41E+01 Mbytes, locked:    0 /   6
[tb_pin] Currently allocated     0.00E+00 Mbytes, locked:    0 /   0

     iteration # 14     ecut=    90.00 Ry     beta= 0.20
     Davidson diagonalization with overlap

---- Real-time Memory Report at c_bands before calling an iterative solver
         10681 MiB given to the printing process from OS
         -1883 MiB allocation reported by mallinfo(arena+hblkhd)
        463892 MiB available memory on the node where the printing process lives
     GPU memory used/free/total (MiB): 31837 / 33131 / 64969
------------------
     c_bands:  1 eigenvalues not converged
     ethr =  2.91E-05,  avg # of iterations = 20.0

     negative rho (up, down):  3.781E-02 0.000E+00

     total cpu time spent up to now is       96.3 secs

     total energy              =   -9096.00579236 Ry
     estimated scf accuracy    <       0.19693871 Ry
[tb_dev] Currently allocated     2.41E+01 Mbytes, locked:    0 /   6
[tb_pin] Currently allocated     0.00E+00 Mbytes, locked:    0 /   0

     iteration # 15     ecut=    90.00 Ry     beta= 0.20
     Davidson diagonalization with overlap

---- Real-time Memory Report at c_bands before calling an iterative solver
         10681 MiB given to the printing process from OS
         -1883 MiB allocation reported by mallinfo(arena+hblkhd)
        463892 MiB available memory on the node where the printing process lives
     GPU memory used/free/total (MiB): 31837 / 33131 / 64969
------------------
     ethr =  1.41E-05,  avg # of iterations = 13.0

     negative rho (up, down):  3.854E-02 0.000E+00

     total cpu time spent up to now is      100.2 secs

     total energy              =   -9096.00388645 Ry
     estimated scf accuracy    <       0.06143246 Ry
[tb_dev] Currently allocated     2.41E+01 Mbytes, locked:    0 /   6
[tb_pin] Currently allocated     0.00E+00 Mbytes, locked:    0 /   0

     iteration # 16     ecut=    90.00 Ry     beta= 0.20
     Davidson diagonalization with overlap

---- Real-time Memory Report at c_bands before calling an iterative solver
         10681 MiB given to the printing process from OS
         -1883 MiB allocation reported by mallinfo(arena+hblkhd)
        463892 MiB available memory on the node where the printing process lives
     GPU memory used/free/total (MiB): 31837 / 33131 / 64969
------------------
     c_bands:  3 eigenvalues not converged
     ethr =  4.41E-06,  avg # of iterations = 20.0

     negative rho (up, down):  3.913E-02 0.000E+00

     total cpu time spent up to now is      104.6 secs

     total energy              =   -9096.01021175 Ry
     estimated scf accuracy    <       0.00872985 Ry
[tb_dev] Currently allocated     2.41E+01 Mbytes, locked:    0 /   6
[tb_pin] Currently allocated     0.00E+00 Mbytes, locked:    0 /   0

     iteration # 17     ecut=    90.00 Ry     beta= 0.20
     Davidson diagonalization with overlap

---- Real-time Memory Report at c_bands before calling an iterative solver
         10681 MiB given to the printing process from OS
         -1883 MiB allocation reported by mallinfo(arena+hblkhd)
        463892 MiB available memory on the node where the printing process lives
     GPU memory used/free/total (MiB): 31837 / 33131 / 64969
------------------
     c_bands:  1 eigenvalues not converged
     ethr =  6.27E-07,  avg # of iterations = 20.0

     negative rho (up, down):  3.935E-02 0.000E+00

     total cpu time spent up to now is      109.7 secs

     total energy              =   -9096.01134372 Ry
     estimated scf accuracy    <       0.00572886 Ry
[tb_dev] Currently allocated     2.41E+01 Mbytes, locked:    0 /   6
[tb_pin] Currently allocated     0.00E+00 Mbytes, locked:    0 /   0

     iteration # 18     ecut=    90.00 Ry     beta= 0.20
     Davidson diagonalization with overlap

---- Real-time Memory Report at c_bands before calling an iterative solver
         10681 MiB given to the printing process from OS
         -1883 MiB allocation reported by mallinfo(arena+hblkhd)
        463892 MiB available memory on the node where the printing process lives
     GPU memory used/free/total (MiB): 31837 / 33131 / 64969
------------------
     ethr =  4.12E-07,  avg # of iterations =  9.0

     negative rho (up, down):  3.988E-02 0.000E+00

     total cpu time spent up to now is      113.5 secs

     total energy              =   -9096.01105192 Ry
     estimated scf accuracy    <       0.00335756 Ry
[tb_dev] Currently allocated     2.41E+01 Mbytes, locked:    0 /   6
[tb_pin] Currently allocated     0.00E+00 Mbytes, locked:    0 /   0

     iteration # 19     ecut=    90.00 Ry     beta= 0.20
     Davidson diagonalization with overlap

---- Real-time Memory Report at c_bands before calling an iterative solver
         10681 MiB given to the printing process from OS
         -1883 MiB allocation reported by mallinfo(arena+hblkhd)
        463892 MiB available memory on the node where the printing process lives
     GPU memory used/free/total (MiB): 31837 / 33131 / 64969
------------------
     ethr =  2.41E-07,  avg # of iterations =  5.0

     negative rho (up, down):  4.025E-02 0.000E+00

     total cpu time spent up to now is      117.5 secs

     total energy              =   -9096.01101051 Ry
     estimated scf accuracy    <       0.00264044 Ry
[tb_dev] Currently allocated     2.41E+01 Mbytes, locked:    0 /   6
[tb_pin] Currently allocated     0.00E+00 Mbytes, locked:    0 /   0

     iteration # 20     ecut=    90.00 Ry     beta= 0.20
     Davidson diagonalization with overlap

---- Real-time Memory Report at c_bands before calling an iterative solver
         10681 MiB given to the printing process from OS
         -1883 MiB allocation reported by mallinfo(arena+hblkhd)
        463892 MiB available memory on the node where the printing process lives
     GPU memory used/free/total (MiB): 31837 / 33131 / 64969
------------------
     ethr =  1.90E-07,  avg # of iterations =  4.0

     negative rho (up, down):  4.043E-02 0.000E+00

     total cpu time spent up to now is      121.3 secs

     total energy              =   -9096.01137534 Ry
     estimated scf accuracy    <       0.00032929 Ry
[tb_dev] Currently allocated     2.41E+01 Mbytes, locked:    0 /   6
[tb_pin] Currently allocated     0.00E+00 Mbytes, locked:    0 /   0

     iteration # 21     ecut=    90.00 Ry     beta= 0.20
     Davidson diagonalization with overlap

---- Real-time Memory Report at c_bands before calling an iterative solver
         10681 MiB given to the printing process from OS
         -1883 MiB allocation reported by mallinfo(arena+hblkhd)
        463892 MiB available memory on the node where the printing process lives
     GPU memory used/free/total (MiB): 31837 / 33131 / 64969
------------------
     ethr =  2.37E-08,  avg # of iterations =  4.0

     negative rho (up, down):  4.050E-02 0.000E+00

     total cpu time spent up to now is      125.1 secs

     total energy              =   -9096.01142530 Ry
     estimated scf accuracy    <       0.00011501 Ry
[tb_dev] Currently allocated     2.41E+01 Mbytes, locked:    0 /   6
[tb_pin] Currently allocated     0.00E+00 Mbytes, locked:    0 /   0

     iteration # 22     ecut=    90.00 Ry     beta= 0.20
     Davidson diagonalization with overlap

---- Real-time Memory Report at c_bands before calling an iterative solver
         10681 MiB given to the printing process from OS
         -1883 MiB allocation reported by mallinfo(arena+hblkhd)
        463892 MiB available memory on the node where the printing process lives
     GPU memory used/free/total (MiB): 31837 / 33131 / 64969
------------------
     ethr =  8.26E-09,  avg # of iterations =  2.0

     negative rho (up, down):  4.058E-02 0.000E+00

     total cpu time spent up to now is      128.7 secs

     total energy              =   -9096.01143675 Ry
     estimated scf accuracy    <       0.00005422 Ry
[tb_dev] Currently allocated     2.41E+01 Mbytes, locked:    0 /   6
[tb_pin] Currently allocated     0.00E+00 Mbytes, locked:    0 /   0

     iteration # 23     ecut=    90.00 Ry     beta= 0.20
     Davidson diagonalization with overlap

---- Real-time Memory Report at c_bands before calling an iterative solver
         10681 MiB given to the printing process from OS
         -1883 MiB allocation reported by mallinfo(arena+hblkhd)
        463892 MiB available memory on the node where the printing process lives
     GPU memory used/free/total (MiB): 31837 / 33131 / 64969
------------------
     ethr =  3.90E-09,  avg # of iterations =  4.0

     negative rho (up, down):  4.063E-02 0.000E+00

     total cpu time spent up to now is      132.5 secs

     total energy              =   -9096.01144393 Ry
     estimated scf accuracy    <       0.00002143 Ry
[tb_dev] Currently allocated     2.41E+01 Mbytes, locked:    0 /   6
[tb_pin] Currently allocated     0.00E+00 Mbytes, locked:    0 /   0

     iteration # 24     ecut=    90.00 Ry     beta= 0.20
     Davidson diagonalization with overlap

---- Real-time Memory Report at c_bands before calling an iterative solver
         10681 MiB given to the printing process from OS
         -1883 MiB allocation reported by mallinfo(arena+hblkhd)
        463892 MiB available memory on the node where the printing process lives
     GPU memory used/free/total (MiB): 31837 / 33131 / 64969
------------------
     ethr =  1.54E-09,  avg # of iterations =  4.0

     negative rho (up, down):  4.066E-02 0.000E+00

     total cpu time spent up to now is      136.4 secs

     total energy              =   -9096.01144697 Ry
     estimated scf accuracy    <       0.00000924 Ry
[tb_dev] Currently allocated     2.41E+01 Mbytes, locked:    0 /   6
[tb_pin] Currently allocated     0.00E+00 Mbytes, locked:    0 /   0

     iteration # 25     ecut=    90.00 Ry     beta= 0.20
     Davidson diagonalization with overlap

---- Real-time Memory Report at c_bands before calling an iterative solver
         10681 MiB given to the printing process from OS
         -1883 MiB allocation reported by mallinfo(arena+hblkhd)
        463892 MiB available memory on the node where the printing process lives
     GPU memory used/free/total (MiB): 31837 / 33131 / 64969
------------------
     ethr =  6.64E-10,  avg # of iterations =  2.0

     negative rho (up, down):  4.068E-02 0.000E+00

     total cpu time spent up to now is      140.0 secs

     total energy              =   -9096.01144735 Ry
     estimated scf accuracy    <       0.00000483 Ry
[tb_dev] Currently allocated     2.41E+01 Mbytes, locked:    0 /   6
[tb_pin] Currently allocated     0.00E+00 Mbytes, locked:    0 /   0

     iteration # 26     ecut=    90.00 Ry     beta= 0.20
     Davidson diagonalization with overlap

---- Real-time Memory Report at c_bands before calling an iterative solver
         10681 MiB given to the printing process from OS
         -1883 MiB allocation reported by mallinfo(arena+hblkhd)
        463892 MiB available memory on the node where the printing process lives
     GPU memory used/free/total (MiB): 31837 / 33131 / 64969
------------------
     ethr =  3.47E-10,  avg # of iterations =  2.0

     negative rho (up, down):  4.069E-02 0.000E+00

     total cpu time spent up to now is      143.6 secs

     total energy              =   -9096.01144789 Ry
     estimated scf accuracy    <       0.00000118 Ry
[tb_dev] Currently allocated     2.41E+01 Mbytes, locked:    0 /   6
[tb_pin] Currently allocated     0.00E+00 Mbytes, locked:    0 /   0

     iteration # 27     ecut=    90.00 Ry     beta= 0.20
     Davidson diagonalization with overlap

---- Real-time Memory Report at c_bands before calling an iterative solver
         10681 MiB given to the printing process from OS
         -1883 MiB allocation reported by mallinfo(arena+hblkhd)
        464082 MiB available memory on the node where the printing process lives
     GPU memory used/free/total (MiB): 32051 / 32917 / 64969
------------------
     ethr =  8.49E-11,  avg # of iterations =  5.0

     negative rho (up, down):  4.070E-02 0.000E+00

     total cpu time spent up to now is      147.8 secs

     total energy              =   -9096.01144829 Ry
     estimated scf accuracy    <       0.00000050 Ry
[tb_dev] Currently allocated     2.41E+01 Mbytes, locked:    0 /   6
[tb_pin] Currently allocated     0.00E+00 Mbytes, locked:    0 /   0

     iteration # 28     ecut=    90.00 Ry     beta= 0.20
     Davidson diagonalization with overlap

---- Real-time Memory Report at c_bands before calling an iterative solver
         10681 MiB given to the printing process from OS
         -1883 MiB allocation reported by mallinfo(arena+hblkhd)
        463892 MiB available memory on the node where the printing process lives
     GPU memory used/free/total (MiB): 32051 / 32917 / 64969
------------------
     ethr =  3.61E-11,  avg # of iterations =  2.0

     negative rho (up, down):  4.071E-02 0.000E+00

     total cpu time spent up to now is      151.4 secs

     total energy              =   -9096.01144830 Ry
     estimated scf accuracy    <       0.00000023 Ry
[tb_dev] Currently allocated     2.41E+01 Mbytes, locked:    0 /   6
[tb_pin] Currently allocated     0.00E+00 Mbytes, locked:    0 /   0

     iteration # 29     ecut=    90.00 Ry     beta= 0.20
     Davidson diagonalization with overlap

---- Real-time Memory Report at c_bands before calling an iterative solver
         10681 MiB given to the printing process from OS
         -1883 MiB allocation reported by mallinfo(arena+hblkhd)
        463892 MiB available memory on the node where the printing process lives
     GPU memory used/free/total (MiB): 32051 / 32917 / 64969
------------------
     ethr =  1.63E-11,  avg # of iterations =  4.0

     negative rho (up, down):  4.071E-02 0.000E+00

     total cpu time spent up to now is      155.3 secs

[...]
     atom  143 type  1   force =     0.00000197    0.00001156    0.00003674
     atom  144 type  1   force =    -0.00002286   -0.00000814    0.00000045
     atom  145 type  1   force =     0.00000451   -0.00001018    0.00000818
     atom  146 type  1   force =     0.00002538    0.00002395    0.00000973
     atom  147 type  1   force =    -0.00000475    0.00000791    0.00001063
     atom  148 type  1   force =     0.00000561   -0.00000720    0.00000646
     atom  149 type  1   force =     0.00000066    0.00000118    0.00004578
     atom  150 type  4   force =    -0.00001460    0.00000943    0.00004497
     atom  151 type  2   force =    -0.00000386   -0.00000317   -0.00000066
     atom  152 type  2   force =    -0.00001562   -0.00000506   -0.00000392
     atom  153 type  2   force =    -0.00000483    0.00001014    0.00000020
     atom  154 type  2   force =    -0.00000671   -0.00000873   -0.00000951
     atom  155 type  2   force =    -0.00000916    0.00000092   -0.00000370
     atom  156 type  2   force =     0.00000476   -0.00000432   -0.00000344
     atom  157 type  2   force =    -0.00001154    0.00000690   -0.00001889
     atom  158 type  2   force =    -0.00000844   -0.00000691   -0.00001776
     atom  159 type  2   force =     0.00000431    0.00000348   -0.00001060
     atom  160 type  2   force =    -0.00001879    0.00000664   -0.00001829
     atom  161 type  2   force =    -0.00000335   -0.00001624   -0.00002101
     atom  162 type  2   force =     0.00000164    0.00000501   -0.00001151
     atom  163 type  2   force =    -0.00000140    0.00001021   -0.00001011
     atom  164 type  2   force =    -0.00000861    0.00000349   -0.00001299
     atom  165 type  3   force =    -0.00003565    0.00002706    0.00001848
     atom  166 type  3   force =    -0.00001024   -0.00001460   -0.00003388
     atom  167 type  1   force =     0.00003874    0.00001490    0.00001992
     atom  168 type  1   force =    -0.00001997    0.00000481   -0.00006717
     atom  169 type  1   force =     0.00000640   -0.00001064   -0.00000649
     atom  170 type  1   force =    -0.00001383    0.00000086   -0.00000880
     atom  171 type  1   force =    -0.00001361   -0.00001873   -0.00001233
     atom  172 type  1   force =    -0.00002939   -0.00002518   -0.00000803
     atom  173 type  1   force =    -0.00001070    0.00002733    0.00000162
     atom  174 type  1   force =    -0.00001243   -0.00001154   -0.00002238
     atom  175 type  4   force =    -0.00001991    0.00001473   -0.00003433
     atom  176 type  2   force =     0.00001020    0.00001017    0.00000518
     atom  177 type  2   force =     0.00001932    0.00000344   -0.00000488
     atom  178 type  2   force =    -0.00000176   -0.00000394   -0.00000434
     atom  179 type  2   force =     0.00000149   -0.00000150    0.00000339
     atom  180 type  2   force =    -0.00000296    0.00000233    0.00000669
     atom  181 type  2   force =    -0.00000185   -0.00000250    0.00000246
     atom  182 type  2   force =     0.00001968   -0.00001262    0.00001911
     atom  183 type  2   force =     0.00000706    0.00001621    0.00001808
     atom  184 type  2   force =    -0.00000041   -0.00000391    0.00000486
     atom  185 type  2   force =     0.00002373   -0.00000417    0.00001142
     atom  186 type  2   force =    -0.00001759   -0.00000197    0.00001797
     atom  187 type  2   force =    -0.00001539   -0.00001338    0.00001531
     atom  188 type  2   force =    -0.00000306   -0.00001140    0.00000948
     atom  189 type  2   force =    -0.00000399   -0.00000202    0.00001641
     atom  190 type  3   force =     0.00001407    0.00001360   -0.00001775
     atom  191 type  3   force =     0.00002726   -0.00000191    0.00002057
     atom  192 type  1   force =     0.00002273    0.00001146    0.00000565
     atom  193 type  1   force =     0.00001653    0.00000203    0.00000864
     atom  194 type  1   force =    -0.00001895   -0.00000590   -0.00000092
     atom  195 type  1   force =     0.00001010   -0.00000901    0.00000162
     atom  196 type  1   force =     0.00001846    0.00001093    0.00000488
     atom  197 type  1   force =    -0.00000916   -0.00001139    0.00001299
     atom  198 type  1   force =     0.00000479    0.00001267    0.00001799
     atom  199 type  1   force =     0.00000375    0.00000048    0.00003805
     atom  200 type  4   force =    -0.00000383   -0.00001350    0.00004336
     atom  201 type  2   force =     0.00000780    0.00001236    0.00000216
     atom  202 type  2   force =     0.00001680    0.00000029   -0.00000110
     atom  203 type  2   force =     0.00000190   -0.00000320   -0.00000117
     atom  204 type  2   force =     0.00000284    0.00000367    0.00000708
     atom  205 type  2   force =     0.00001079   -0.00000069    0.00000201
     atom  206 type  2   force =     0.00000069   -0.00000697    0.00000454
     atom  207 type  2   force =     0.00000091   -0.00000401   -0.00000038
     atom  208 type  2   force =     0.00000114   -0.00000121   -0.00000715
     atom  209 type  2   force =     0.00001555    0.00000080   -0.00001318
     atom  210 type  2   force =     0.00000453   -0.00000001   -0.00000378
     atom  211 type  2   force =    -0.00000262   -0.00000511   -0.00000713
     atom  212 type  2   force =     0.00000913   -0.00000149   -0.00001198
     atom  213 type  2   force =    -0.00001215   -0.00000485   -0.00000811
     atom  214 type  2   force =     0.00000756   -0.00000006   -0.00000578
     atom  215 type  3   force =     0.00000875   -0.00000457    0.00001036
     atom  216 type  3   force =     0.00000077   -0.00002151    0.00001704
     atom  217 type  1   force =    -0.00001077    0.00000761   -0.00001186
     atom  218 type  1   force =     0.00001342    0.00000665   -0.00001164
     atom  219 type  1   force =    -0.00000689   -0.00001634   -0.00001178
     atom  220 type  1   force =    -0.00000353   -0.00000626   -0.00000464
     atom  221 type  1   force =     0.00000996   -0.00000028   -0.00000418
     atom  222 type  1   force =     0.00001268    0.00000197    0.00000233
     atom  223 type  1   force =     0.00000855   -0.00001215   -0.00001206
     atom  224 type  1   force =     0.00000935   -0.00000726   -0.00001483
     atom  225 type  4   force =    -0.00000288   -0.00001095   -0.00002964
     atom  226 type  2   force =    -0.00000442   -0.00000765    0.00000328
     atom  227 type  2   force =    -0.00000509   -0.00000133   -0.00000332
     atom  228 type  2   force =     0.00000399   -0.00000864   -0.00000226
     atom  229 type  2   force =     0.00000677    0.00000646    0.00000014
     atom  230 type  2   force =     0.00002217   -0.00000571    0.00000093
     atom  231 type  2   force =    -0.00000533    0.00000123   -0.00000086
     atom  232 type  2   force =     0.00000969   -0.00000840    0.00001667
     atom  233 type  2   force =    -0.00000324    0.00000865    0.00001085
     atom  234 type  2   force =    -0.00001648   -0.00001274    0.00000874
     atom  235 type  2   force =     0.00001480   -0.00001054    0.00001727
     atom  236 type  2   force =     0.00000725    0.00001484    0.00001324
     atom  237 type  2   force =    -0.00000601   -0.00000908    0.00001050
     atom  238 type  2   force =     0.00001207    0.00001616    0.00001961
     atom  239 type  2   force =     0.00001105    0.00000149    0.00000823
     atom  240 type  3   force =     0.00000139   -0.00006914    0.00007551
     atom  241 type  3   force =     0.00001562    0.00003907    0.00001245
     atom  242 type  1   force =    -0.00002071   -0.00001502    0.00001352
     atom  243 type  1   force =     0.00000030   -0.00000909    0.00004091
     atom  244 type  1   force =     0.00000726    0.00001401    0.00001732
     atom  245 type  1   force =     0.00001464   -0.00000339    0.00000949
     atom  246 type  1   force =    -0.00000925    0.00000045    0.00001883
     atom  247 type  1   force =     0.00002092    0.00001550    0.00000244
     atom  248 type  1   force =     0.00000073   -0.00001773    0.00000856
     atom  249 type  1   force =     0.00000703    0.00001076    0.00003083
     atom  250 type  4   force =     0.00003119    0.00000680    0.00003312
     atom  251 type  2   force =     0.00000491    0.00000985   -0.00000113
     atom  252 type  2   force =     0.00000056   -0.00000017    0.00000117
     atom  253 type  2   force =    -0.00000326    0.00000608   -0.00000337
     atom  254 type  2   force =     0.00000617    0.00001219    0.00001239
     atom  255 type  2   force =     0.00000100    0.00000143    0.00000990
     atom  256 type  2   force =    -0.00000596    0.00000282    0.00000587
     atom  257 type  2   force =    -0.00000491    0.00000804   -0.00001017
     atom  258 type  2   force =     0.00000596   -0.00000255   -0.00000450
     atom  259 type  2   force =     0.00000716    0.00000959   -0.00001348
     atom  260 type  2   force =    -0.00000563    0.00000452   -0.00001374
     atom  261 type  2   force =    -0.00000293   -0.00000185   -0.00000640
     atom  262 type  2   force =     0.00001104    0.00000730   -0.00001377
     atom  263 type  2   force =    -0.00000747    0.00000372   -0.00000995
     atom  264 type  2   force =     0.00000492    0.00000242   -0.00000456
     atom  265 type  3   force =    -0.00002343   -0.00000941   -0.00001131
     atom  266 type  3   force =     0.00003470   -0.00003570    0.00003489
     atom  267 type  1   force =    -0.00000013   -0.00000214   -0.00001138
     atom  268 type  1   force =     0.00000164    0.00000552   -0.00001487
     atom  269 type  1   force =    -0.00000898   -0.00000853   -0.00000198
     atom  270 type  1   force =    -0.00001114    0.00002236   -0.00000135
     atom  271 type  1   force =     0.00000670   -0.00000449    0.00000931
     atom  272 type  1   force =     0.00000445    0.00000486   -0.00000015
     atom  273 type  1   force =    -0.00001217   -0.00000405   -0.00000317
     atom  274 type  1   force =     0.00000442    0.00000742   -0.00003201
     atom  275 type  4   force =    -0.00000158    0.00000370   -0.00002644
     atom  276 type  2   force =    -0.00000184   -0.00000223    0.00000272
     atom  277 type  2   force =    -0.00000996   -0.00000143    0.00000830
     atom  278 type  2   force =    -0.00000348    0.00000707    0.00000205
     atom  279 type  2   force =     0.00001003    0.00001579    0.00000246
     atom  280 type  2   force =     0.00000970    0.00000589    0.00000164
     atom  281 type  2   force =    -0.00000618    0.00000533   -0.00000407
     atom  282 type  2   force =     0.00001180   -0.00000048    0.00000892
     atom  283 type  2   force =    -0.00000463    0.00001563    0.00001421
     atom  284 type  2   force =    -0.00001866   -0.00000994    0.00002059
     atom  285 type  2   force =     0.00000801   -0.00000815    0.00001197
     atom  286 type  2   force =     0.00000959    0.00001161    0.00001762
     atom  287 type  2   force =    -0.00000115   -0.00000085    0.00000581
     atom  288 type  2   force =     0.00000412    0.00000833    0.00001353
     atom  289 type  2   force =     0.00000730    0.00000098    0.00000862
     atom  290 type  3   force =     0.00001516   -0.00002157    0.00002004
     atom  291 type  3   force =     0.00000075   -0.00000330    0.00001301
     atom  292 type  1   force =    -0.00002061   -0.00000593    0.00000895
     atom  293 type  1   force =    -0.00000568    0.00000183    0.00003180
     atom  294 type  1   force =     0.00002848    0.00000520    0.00001590
     atom  295 type  1   force =    -0.00000557    0.00001621    0.00002255
     atom  296 type  1   force =    -0.00001597   -0.00001320    0.00001917
     atom  297 type  1   force =     0.00002326    0.00001066    0.00000448
     atom  298 type  1   force =     0.00000361    0.00000440    0.00000207
     atom  299 type  1   force =     0.00000934    0.00000054    0.00001312
     atom  300 type  4   force =     0.00001366    0.00001671    0.00002111

     Total force =     1.055699     Total SCF correction =     0.000411


     Computing stress (Cartesian axis) and pressure


     negative rho (up, down):  4.073E-02 0.000E+00
          total   stress  (Ry/bohr**3)                   (kbar)     P=        4.12
   0.00005803   0.00000116  -0.00000790            8.54        0.17       -1.16
   0.00000116   0.00005988  -0.00000522            0.17        8.81       -0.77
  -0.00000790  -0.00000522  -0.00003391           -1.16       -0.77       -4.99

     kinetic stress (kbar)   5338.11     -0.81     -0.85
                               -0.81   5335.69     -0.47
                               -0.85     -0.47   5322.01

     local   stress (kbar)-640124.02    -72.51      1.69
                              -72.51-640315.66     46.97
                                1.69     46.97 633671.17

     nonloc. stress (kbar)    957.73      0.36     -0.17
                                0.36    957.13     -0.55
                               -0.17     -0.55    954.79

     hartree stress (kbar) 320690.29     30.15     -2.09
                               30.15 320769.52    -22.72
                               -2.09    -22.72-314780.34

     exc-cor stress (kbar)  -1263.92      0.09      0.02
                                0.09  -1263.84     -0.01
                                0.02     -0.01  -1265.94

     corecor stress (kbar)   -292.88     -0.00      0.00
                               -0.00   -292.87      0.01
                                0.00      0.01   -292.73

     ewald   stress (kbar) 314703.24     42.90      0.23
                               42.90 314818.84    -23.99
                                0.23    -23.99-323613.96

     hubbard stress (kbar)      0.00      0.00      0.00
                                0.00      0.00      0.00
                                0.00      0.00      0.00

     DFT-D   stress (kbar)      0.00      0.00      0.00
                                0.00      0.00      0.00
                                0.00      0.00      0.00

     XDM     stress (kbar)      0.00      0.00      0.00
                                0.00      0.00      0.00
                                0.00      0.00      0.00

     dft-nl  stress (kbar)      0.00      0.00      0.00
                                0.00      0.00      0.00
                                0.00      0.00      0.00

     TS-vdW  stress (kbar)      0.00      0.00      0.00
                                0.00      0.00      0.00
                                0.00      0.00      0.00

     MDB     stress (kbar)      0.00      0.00      0.00
                                0.00      0.00      0.00
                                0.00      0.00      0.00

     3D-RISM stress (kbar)      0.00      0.00      0.00
                                0.00      0.00      0.00
                                0.00      0.00      0.00


     Writing all to output data dir ./tmp/pwscf.save/
 
     init_run     :     29.41s CPU     34.31s WALL (       1 calls)
     electrons    :    116.90s CPU    124.39s WALL (       1 calls)
     forces       :      3.15s CPU      3.38s WALL (       1 calls)
     stress       :     81.01s CPU     83.48s WALL (       1 calls)

     Called by init_run:
     wfcinit      :      3.48s CPU      5.48s WALL (       1 calls)
                                        5.48s GPU  (       1 calls)
     wfcinit:atom :      0.01s CPU      0.01s WALL (       1 calls)
                                        0.01s GPU  (       1 calls)
     wfcinit:wfcr :      1.23s CPU      2.50s WALL (       1 calls)
                                        2.50s GPU  (       1 calls)
     potinit      :     16.35s CPU     16.63s WALL (       1 calls)
     hinit0       :      7.26s CPU      7.50s WALL (       1 calls)

     Called by electrons:
     c_bands      :     73.81s CPU     75.89s WALL (      30 calls)
     sum_band     :     16.45s CPU     16.95s WALL (      30 calls)
     v_of_rho     :      3.31s CPU      3.47s WALL (      31 calls)
     v_h          :      1.81s CPU      1.89s WALL (      31 calls)
     v_xc         :      1.63s CPU      1.71s WALL (      33 calls)
     newd         :      2.51s CPU      4.99s WALL (      31 calls)
                                        4.99s GPU  (      31 calls)
     PAW_pot      :      3.36s CPU      3.38s WALL (      31 calls)
     mix_rho      :      8.33s CPU      8.64s WALL (      30 calls)

     Called by c_bands:
     init_us_2    :      0.49s CPU      0.64s WALL (      61 calls)
     init_us_2:gp :      0.49s CPU      0.64s WALL (      61 calls)
     regterg      :     64.31s CPU     66.19s WALL (      31 calls)

     Called by sum_band:
     sum_band:wei :      0.01s CPU      0.01s WALL (      30 calls)
                                        0.01s GPU  (      30 calls)
     sum_band:loo :     12.95s CPU     13.25s WALL (      30 calls)
                                       13.25s GPU  (      30 calls)
     sum_band:buf :      1.95s CPU      1.96s WALL (      30 calls)
                                        1.96s GPU  (      30 calls)
     sum_band:ini :      0.25s CPU      0.47s WALL (      30 calls)
                                        0.47s GPU  (      30 calls)
     sum_band:cal :      2.15s CPU      2.20s WALL (      30 calls)
                                        2.20s GPU  (      30 calls)
     sum_band:bec :      0.21s CPU      0.21s WALL (      30 calls)
                                        0.21s GPU  (      30 calls)
     addusdens    :      2.14s CPU      2.32s WALL (      30 calls)
                                        2.32s GPU  (      30 calls)
     addusd:skk   :      0.45s CPU      0.46s WALL (     120 calls)
                                        0.46s GPU  (     120 calls)

     Called by *egterg:
     rdiaghg      :      6.42s CPU      6.63s WALL (     242 calls)
                                        6.63s GPU  (     242 calls)
     regterg:over :      3.97s CPU      4.04s WALL (     211 calls)
     regterg:upda :      2.20s CPU      2.23s WALL (     211 calls)
     regterg:last :      4.21s CPU      4.22s WALL (      66 calls)
     h_psi        :     40.95s CPU     43.55s WALL (     243 calls)
                                       43.54s GPU  (     243 calls)
     s_psi        :      1.09s CPU      5.15s WALL (     243 calls)
                                        5.00s GPU  (     243 calls)
     g_psi        :      0.00s CPU      0.21s WALL (     211 calls)
                                        0.21s GPU  (     211 calls)

     Called by h_psi:
     h_psi:calbec :      5.88s CPU      6.12s WALL (     243 calls)
                                        6.12s GPU  (     243 calls)
     vloc_psi     :     30.40s CPU     31.73s WALL (     243 calls)
                                       31.73s GPU  (     243 calls)
     add_vuspsi   :      0.49s CPU      5.47s WALL (     243 calls)
                                        5.46s GPU  (     243 calls)

     General routines
     calbec       :      8.44s CPU      8.89s WALL (     278 calls)
     fft          :      5.89s CPU      7.84s WALL (     359 calls)
                                        0.77s GPU  (     328 calls)
     ffts         :      2.99s CPU      3.50s WALL (      61 calls)
                                        0.04s GPU  (      30 calls)
     fftw         :     18.31s CPU     30.91s WALL (   17004 calls)
                                       30.71s GPU  (   17004 calls)
     interpolate  :      9.49s CPU     11.79s WALL (      31 calls)
 
     Parallel routines

     PAW routines
     PAW_pot      :      3.36s CPU      3.38s WALL (      31 calls)
 
     PWSCF        :   3m52.85s CPU   4m13.12s WALL

 
   This run was terminated on:  13:43:10  30Dec2023            

=------------------------------------------------------------------------------=
   JOB DONE.
=------------------------------------------------------------------------------=
