
     Program PWSCF v.7.2 starts on 30Dec2023 at 13:47:31 

     This program is part of the open-source Quantum ESPRESSO suite
     for quantum simulation of materials; please cite
         "P. Giannozzi et al., J. Phys.:Condens. Matter 21 395502 (2009);
         "P. Giannozzi et al., J. Phys.:Condens. Matter 29 465901 (2017);
         "P. Giannozzi et al., J. Chem. Phys. 152 154105 (2020);
          URL http://www.quantum-espresso.org", 
     in publications or presentations arising from this work. More details at
     http://www.quantum-espresso.org/quote

     Parallel version (MPI & OpenMP), running on       4 processor cores
     Number of MPI processes:                 4
     Threads/MPI process:                     1

     MPI processes distributed on     1 nodes
     503968 MiB available memory on the printing compute node when the environment starts
 
     Reading input from input_0006.inp

     Current dimensions of program PWSCF are:
     Max number of different atomic species (ntypx) = 10
     Max number of k-points (npk) =  40000
     Max angular momentum in pseudopotentials (lmaxx) =  4
     file O.pbe-n-kjpaw_psl.0.1.UPF: wavefunction(s)  2P renormalized

     gamma-point specific algorithms are used
 
     R & G space division:  proc/nbgrp/npool/nimage =       4
     Subspace diagonalization in iterative solution of the eigenvalue problem:
     a serial algorithm will be used

 
     Parallelization info
     --------------------
     sticks:   dense  smooth     PW     G-vecs:    dense   smooth      PW
     Min        6485    4324   1079              2728975  1485363  185656
     Max        6486    4326   1080              2728990  1485382  185664
     Sum       25943   17301   4319             10915929  5941483  742635
 
     Using Slab Decomposition
 


     bravais-lattice index     =            0
     lattice parameter (alat)  =      32.3352  a.u.
     unit-cell volume          =   51510.8153 (a.u.)^3
     number of atoms/cell      =          300
     number of atomic types    =            4
     number of electrons       =      1392.00
     number of Kohn-Sham states=          835
     kinetic-energy cutoff     =      90.0000  Ry
     charge density cutoff     =     540.0000  Ry
     scf convergence threshold =      1.0E-07
     mixing beta               =       0.2000
     number of iterations used =            8  plain     mixing
     Exchange-correlation= SLA  PW   PBX  PBC
                           (   1   4   3   4   0   0   0)

     GPU acceleration is ACTIVE.
     GPU-aware MPI enabled


     GPU used by master process:

        Device Number: 0
        Device name: NVIDIA PG506-243
        Compute capability : 80
        Ratio of single to double precision performance  : 2
        Memory Clock Rate (KHz): 1593000
        Memory Bus Width (bits): 4096
        Peak Memory Bandwidth (GB/s): ******

     celldm(1)=  32.335181  celldm(2)=   0.000000  celldm(3)=   0.000000
     celldm(4)=   0.000000  celldm(5)=   0.000000  celldm(6)=   0.000000

     crystal axes: (cart. coord. in units of alat)
               a(1) = (   1.000000   0.000000   0.000000 )  
               a(2) = (  -0.333333   0.577350   0.000000 )  
               a(3) = (   0.000000  -0.000000   2.638962 )  

     reciprocal axes: (cart. coord. in units 2 pi/alat)
               b(1) = (  1.000000  0.577350  0.000000 )  
               b(2) = ( -0.000000  1.732051  0.000000 )  
               b(3) = (  0.000000 -0.000000  0.378937 )  


     PseudoPot. # 1 for N  read from file:
     /leonardo_scratch/large/userexternal/uraucci0/Li_Cr/PPS/N.pbe-n-radius_5.UPF
     MD5 check sum: 16739722b17309cd8fe442a2ace49922
     Pseudo is Ultrasoft + core correction, Zval =  5.0
     Generated using "atomic" code by A. Dal Corso  v.5.1
     Using radial grid of 1085 points,  4 beta functions with: 
                l(1) =   0
                l(2) =   0
                l(3) =   1
                l(4) =   1
     Q(r) pseudized with 0 coefficients 


     PseudoPot. # 2 for Li read from file:
     /leonardo_scratch/large/userexternal/uraucci0/Li_Cr/PPS/li_pbe_v1.4.uspp.F.UPF
     MD5 check sum: e912e257baa3777c20ea3d68f190483c
     Pseudo is Ultrasoft, Zval =  3.0
     Generated by new atomic code, or converted to UPF format
     Using radial grid of  751 points,  5 beta functions with: 
                l(1) =   0
                l(2) =   0
                l(3) =   0
                l(4) =   1
                l(5) =   1
     Q(r) pseudized with 10 coefficients,  rinner =    1.150   1.150   1.150


     PseudoPot. # 3 for Cr read from file:
     /leonardo_scratch/large/userexternal/uraucci0/Li_Cr/PPS/cr_pbe_v1.5.uspp.F.UPF
     MD5 check sum: 0d52af634a40206e4dee301ad30da4bf
     Pseudo is Ultrasoft + core correction, Zval = 14.0
     Generated by new atomic code, or converted to UPF format
     Using radial grid of  857 points,  6 beta functions with: 
                l(1) =   0
                l(2) =   0
                l(3) =   1
                l(4) =   1
                l(5) =   2
                l(6) =   2
     Q(r) pseudized with  8 coefficients,  rinner =    0.950   0.950   0.950
                                                       0.950   0.950

     PseudoPot. # 4 for O  read from file:
     /leonardo_scratch/large/userexternal/uraucci0/Li_Cr/PPS/O.pbe-n-kjpaw_psl.0.1.UPF
     MD5 check sum: 0234752ac141de4415c5fc33072bef88
     Pseudo is Projector augmented-wave + core cor, Zval =  6.0
     Generated using "atomic" code by A. Dal Corso  v.5.0.99 svn rev. 10869
     Shape of augmentation charge: BESSEL
     Using radial grid of 1095 points,  4 beta functions with: 
                l(1) =   0
                l(2) =   0
                l(3) =   1
                l(4) =   1
     Q(r) pseudized with 0 coefficients 


     atomic species   valence    mass     pseudopotential
        N              5.00    14.00674     N ( 1.00)
        Li             3.00     6.94100     Li( 1.00)
        Cr            14.00    51.99610     Cr( 1.00)
        O              6.00    15.99940     O ( 1.00)

     No symmetry found


                                    s                        frac. trans.

      isym =  1     identity                                     

 cryst.   s( 1) = (     1          0          0      )
                  (     0          1          0      )
                  (     0          0          1      )

 cart.    s( 1) = (  1.0000000  0.0000000  0.0000000 )
                  (  0.0000000  1.0000000  0.0000000 )
                  (  0.0000000  0.0000000  1.0000000 )


   Cartesian axes

     site n.     atom                  positions (alat units)
         1           Li  tau(   1) = (   0.2593273   0.0873080   0.8766270  )
         2           Li  tau(   2) = (   0.1280588   0.1809300   0.8766270  )
         3           Li  tau(   3) = (   0.1126144   0.0204373   0.8766270  )
         4           Li  tau(   4) = (  -0.0977813   0.1978904   1.2802202  )
         5           Li  tau(   5) = (   0.0416404   0.1131083   1.2735169  )
         6           Li  tau(   6) = (   0.0470618   0.2728455   1.2940300  )
         7           Li  tau(   7) = (   0.0669942   0.0904568   1.0336250  )
         8           Li  tau(   8) = (   0.2214985   0.0127904   1.0336250  )
         9           Li  tau(   9) = (   0.2115073   0.1854282   1.0336250  )
        10           Li  tau(  10) = (   0.1024064   0.2087857   1.1192189  )
        11           Li  tau(  11) = (  -0.0407202   0.2646759   1.1174598  )
        12           Li  tau(  12) = (  -0.0391199   0.1026127   1.1147247  )
        13           Li  tau(  13) = (   0.0000000   0.0000000   0.9626942  )
        14           Li  tau(  14) = (   0.9932008   0.0097807   1.1903951  )
        15           Cr  tau(  15) = (   0.1631017   0.0957189   1.2081147  )
        16           Cr  tau(  16) = (  -0.0000000   0.1924500   0.9478909  )
        17           N   tau(  17) = (   0.2618496   0.0908852   1.2410291  )
        18           N   tau(  18) = (   0.1694280   0.1024473   1.0984136  )
        19           N   tau(  19) = (  -0.0969339   0.1982778   0.9168466  )
        20           N   tau(  20) = (   0.0434200   0.1055885   0.9168466  )
        21           N   tau(  21) = (   0.0535141   0.2734837   0.9168466  )
        22           N   tau(  22) = (   0.1033415   0.0175532   1.2491584  )
        23           N   tau(  23) = (   0.1271986   0.1827335   1.2414382  )
        24           N   tau(  24) = (  -0.0000000   0.1924500   1.0497374  )
        25           O   tau(  25) = (   0.0017153  -0.0048836   1.0776726  )
        26           Li  tau(  26) = (   0.2648460   0.1018635   1.3738732  )
        27           Li  tau(  27) = (   0.1301592   0.1708879   1.3764212  )
        28           Li  tau(  28) = (   0.1036477   0.0191843   1.3669127  )
        29           Li  tau(  29) = (  -0.0989759   0.1933810   1.7708449  )
        30           Li  tau(  30) = (   0.0414532   0.1127868   1.7781151  )
        31           Li  tau(  31) = (   0.0541084   0.2900361   1.7832229  )
        32           Li  tau(  32) = (   0.0820435   0.0885872   1.5393803  )
        33           Li  tau(  33) = (   0.2325820   0.0273425   1.5170380  )
        34           Li  tau(  34) = (   0.2124692   0.1767549   1.5379076  )
        35           Li  tau(  35) = (   0.0972092   0.2011637   1.6227125  )
        36           Li  tau(  36) = (  -0.0712856   0.2764724   1.6188845  )
        37           Li  tau(  37) = (  -0.0136652   0.0921119   1.6180780  )
        38           Li  tau(  38) = (   0.6716891   0.5720388   1.4647209  )
        39           Li  tau(  39) = (   0.6709995   0.5671233   1.7161434  )
        40           Cr  tau(  40) = (   0.1691487   0.0944677   1.7146882  )
        41           Cr  tau(  41) = (  -0.0023678   0.1800837   1.4503384  )
        42           N   tau(  42) = (   0.2645719   0.0800945   1.7452006  )
        43           N   tau(  43) = (   0.1684404   0.0930206   1.6142560  )
        44           N   tau(  44) = (  -0.0937260   0.1859291   1.4001135  )
        45           N   tau(  45) = (   0.0432780   0.0991518   1.4130701  )
        46           N   tau(  46) = (   0.0449938   0.2686698   1.4211876  )
        47           N   tau(  47) = (   0.1207203   0.0060662   1.7462526  )
        48           N   tau(  48) = (   0.1204608   0.1886203   1.7440669  )
        49           N   tau(  49) = (   0.0016774   0.1893567   1.5483687  )
        50           O   tau(  50) = (  -0.3288654   0.5695726   1.5713889  )
        51           Li  tau(  51) = (   0.0926606   0.3759836   0.8766270  )
        52           Li  tau(  52) = (  -0.0386079   0.4696050   0.8766270  )
        53           Li  tau(  53) = (  -0.0540524   0.3091127   0.8766270  )
        54           Li  tau(  54) = (  -0.2717438   0.4965729   1.2861579  )
        55           Li  tau(  55) = (  -0.0737255   0.4088816   1.3157820  )
        56           Li  tau(  56) = (  -0.1223713   0.5462076   1.2624597  )
        57           Li  tau(  57) = (  -0.0996725   0.3791318   1.0336250  )
        58           Li  tau(  58) = (   0.0548319   0.3014656   1.0336250  )
        59           Li  tau(  59) = (   0.0448406   0.4741032   1.0336250  )
        60           Li  tau(  60) = (  -0.0614685   0.4886541   1.1185702  )
        61           Li  tau(  61) = (  -0.2201684   0.5651345   1.1154085  )
        62           Li  tau(  62) = (  -0.2122454   0.4022631   1.1104000  )
        63           Li  tau(  63) = (  -0.1666667   0.2886750   0.9626942  )
        64           Li  tau(  64) = (  -0.1509505   0.2933737   1.1924873  )
        65           Cr  tau(  65) = (   0.0080743   0.3831555   1.2072264  )
        66           Cr  tau(  66) = (  -0.1666667   0.4811250   0.9478909  )
        67           N   tau(  67) = (   0.1046430   0.3805934   1.2415492  )
        68           N   tau(  68) = (   0.0002462   0.3805555   1.1067299  )
        69           N   tau(  69) = (  -0.2636006   0.4869528   0.9168466  )
        70           N   tau(  70) = (  -0.1232467   0.3942641   0.9168466  )
        71           N   tau(  71) = (  -0.1131527   0.5621587   0.9168466  )
        72           N   tau(  72) = (  -0.0447732   0.2968767   1.2402518  )
        73           N   tau(  73) = (  -0.0255176   0.4736649   1.2407135  )
        74           N   tau(  74) = (  -0.1666667   0.4811250   1.0497374  )
        75           O   tau(  75) = (  -0.1624781   0.2802062   1.0818921  )
        76           Li  tau(  76) = (   0.1008431   0.3796268   1.3569776  )
        77           Li  tau(  77) = (  -0.0188392   0.5096364   1.3706472  )
        78           Li  tau(  78) = (  -0.0464459   0.2943748   1.3760004  )
        79           Li  tau(  79) = (  -0.2609111   0.4744206   1.7941749  )
        80           Li  tau(  80) = (  -0.1249912   0.3718067   1.7982950  )
        81           Li  tau(  81) = (  -0.1152800   0.5636279   1.7964658  )
        82           Li  tau(  82) = (  -0.1199839   0.3883580   1.5426998  )
        83           Li  tau(  83) = (   0.0567146   0.2787235   1.5384160  )
        84           Li  tau(  84) = (   0.0089960   0.3916348   1.4610625  )
        85           Li  tau(  85) = (  -0.0600659   0.5040377   1.6032163  )
        86           Li  tau(  86) = (  -0.2403735   0.5760088   1.6273820  )
        87           Li  tau(  87) = (  -0.2054077   0.3791692   1.6473457  )
        88           Li  tau(  88) = (  -0.1242157   0.2786183   1.4713891  )
        89           Li  tau(  89) = (  -0.1674708   0.2892472   1.7042505  )
        90           Cr  tau(  90) = (  -0.0097747   0.3800774   1.6970972  )
        91           Cr  tau(  91) = (  -0.1552623   0.4841307   1.4441319  )
        92           N   tau(  92) = (   0.0962373   0.3813245   1.7201817  )
        93           N   tau(  93) = (  -0.0116060   0.3754932   1.5879455  )
        94           N   tau(  94) = (  -0.2487563   0.4719736   1.4053967  )
        95           N   tau(  95) = (  -0.1043548   0.3940871   1.4262954  )
        96           N   tau(  96) = (  -0.1211475   0.5664670   1.3983486  )
        97           N   tau(  97) = (  -0.0551177   0.2963449   1.7350844  )
        98           N   tau(  98) = (  -0.0455236   0.4671107   1.7473279  )
        99           N   tau(  99) = (  -0.1589436   0.5016159   1.5424018  )
       100           O   tau( 100) = (  -0.1670284   0.2925515   1.5832876  )
       101           Li  tau( 101) = (   0.5926583   0.0873080   0.8766270  )
       102           Li  tau( 102) = (   0.4613921   0.1809300   0.8766270  )
       103           Li  tau( 103) = (   0.4459477   0.0204373   0.8766270  )
       104           Li  tau( 104) = (   0.2347379   0.2037743   1.2670240  )
       105           Li  tau( 105) = (   0.3661104   0.0993844   1.2799338  )
       106           Li  tau( 106) = (   0.3937171   0.2761726   1.2668779  )
       107           Li  tau( 107) = (   0.4003275   0.0904568   1.0336250  )
       108           Li  tau( 108) = (   0.5548318   0.0127904   1.0336250  )
       109           Li  tau( 109) = (   0.5448406   0.1854282   1.0336250  )
       110           Li  tau( 110) = (   0.4242109   0.2018895   1.1099325  )
       111           Li  tau( 111) = (   0.2757658   0.2780257   1.1095117  )
       112           Li  tau( 112) = (   0.2948494   0.1007519   1.1262202  )
       113           Li  tau( 113) = (   0.3333333   0.0000000   0.9626942  )
       114           Li  tau( 114) = (   0.0064098   0.5738774   1.1960640  )
       115           Cr  tau( 115) = (   0.4969049   0.1062600   1.2038251  )
       116           Cr  tau( 116) = (   0.3333333   0.1924500   0.9478909  )
       117           N   tau( 117) = (   0.5910044   0.0876189   1.2384927  )
       118           N   tau( 118) = (   0.4990123   0.0943005   1.0938493  )
       119           N   tau( 119) = (   0.2363994   0.1982778   0.9168466  )
       120           N   tau( 120) = (   0.3767532   0.1055885   0.9168466  )
       121           N   tau( 121) = (   0.3868473   0.2734837   0.9168466  )
       122           N   tau( 122) = (   0.4377676   0.0263249   1.2468032  )
       123           N   tau( 123) = (   0.4570838   0.1842062   1.2401349  )
       124           N   tau( 124) = (   0.3333333   0.1924500   1.0497374  )
       125           O   tau( 125) = (   0.0065187   0.5777737   1.0752823  )
       126           Li  tau( 126) = (   0.3283360   0.5652800   1.4574975  )
       127           Li  tau( 127) = (   0.4642955   0.1880429   1.3605426  )
       128           Li  tau( 128) = (   0.6022661   0.1055704   1.3676608  )
       129           Li  tau( 129) = (   0.2256274   0.2009510   1.7952327  )
       130           Li  tau( 130) = (   0.3730346   0.1206385   1.7682442  )
       131           Li  tau( 131) = (   0.4289336   0.2845058   1.7902359  )
       132           Li  tau( 132) = (   0.3762892   0.0901436   1.5348920  )
       133           Li  tau( 133) = (   0.4467595   0.0023511   1.6096683  )
       134           Li  tau( 134) = (   0.5603633   0.1890832   1.5430271  )
       135           Li  tau( 135) = (   0.4411666   0.1928176   1.6130228  )
       136           Li  tau( 136) = (   0.2958967   0.2915235   1.6131047  )
       137           Li  tau( 137) = (   0.2913294   0.1090086   1.6315956  )
       138           Li  tau( 138) = (   0.4414354   0.0252816   1.3895998  )
       139           Li  tau( 139) = (   0.3255401   0.0002769   1.6981199  )
       140           Cr  tau( 140) = (   0.4968786   0.0986059   1.7017784  )
       141           Cr  tau( 141) = (   0.3377036   0.1950022   1.4411513  )
       142           N   tau( 142) = (   0.5970940   0.0942567   1.7307480  )
       143           N   tau( 143) = (   0.4950049   0.0972793   1.5978689  )
       144           N   tau( 144) = (   0.2398948   0.2069407   1.4088798  )
       145           N   tau( 145) = (   0.3879495   0.1157224   1.4023635  )
       146           N   tau( 146) = (   0.3934214   0.2738331   1.4101538  )
       147           N   tau( 147) = (   0.4417469   0.0190905   1.7441370  )
       148           N   tau( 148) = (   0.4584642   0.1842851   1.7323727  )
       149           N   tau( 149) = (   0.3355167   0.2054130   1.5428576  )
       150           O   tau( 150) = (   0.3304399   0.0117133   1.5735337  )
       151           Li  tau( 151) = (   0.4259940   0.3759836   0.8766270  )
       152           Li  tau( 152) = (   0.2947255   0.4696050   0.8766270  )
       153           Li  tau( 153) = (   0.2792811   0.3091127   0.8766270  )
       154           Li  tau( 154) = (   0.0959141   0.5014037   1.2707234  )
       155           Li  tau( 155) = (   0.2143119   0.4019902   1.2852637  )
       156           Li  tau( 156) = (   0.2245877   0.5721838   1.2875605  )
       157           Li  tau( 157) = (   0.2336608   0.3791318   1.0336250  )
       158           Li  tau( 158) = (   0.3881652   0.3014656   1.0336250  )
       159           Li  tau( 159) = (   0.3781739   0.4741032   1.0336250  )
       160           Li  tau( 160) = (   0.2593390   0.4834761   1.1111130  )
       161           Li  tau( 161) = (   0.1213246   0.5694972   1.1286689  )
       162           Li  tau( 162) = (   0.1291003   0.4111252   1.1179624  )
       163           Li  tau( 163) = (   0.1666667   0.2886750   0.9626942  )
       164           Li  tau( 164) = (   0.1646621   0.2892501   1.1934867  )
       165           Cr  tau( 165) = (   0.3220564   0.3857714   1.2030595  )
       166           Cr  tau( 166) = (   0.1666667   0.4811250   0.9478909  )
       167           N   tau( 167) = (   0.4197641   0.3793451   1.2403570  )
       168           N   tau( 168) = (   0.3281881   0.3830731   1.0967246  )
       169           N   tau( 169) = (   0.0697328   0.4869528   0.9168466  )
       170           N   tau( 170) = (   0.2100866   0.3942641   0.9168466  )
       171           N   tau( 171) = (   0.2201806   0.5621587   0.9168466  )
       172           N   tau( 172) = (   0.2705066   0.3134362   1.2382181  )
       173           N   tau( 173) = (   0.2852059   0.4773392   1.2454356  )
       174           N   tau( 174) = (   0.1666667   0.4811250   1.0497374  )
       175           O   tau( 175) = (   0.1610972   0.2850078   1.0778888  )
       176           Li  tau( 176) = (   0.4029293   0.3825255   1.3735342  )
       177           Li  tau( 177) = (   0.2844380   0.4732786   1.3714712  )
       178           Li  tau( 178) = (   0.2883115   0.2998245   1.3728738  )
       179           Li  tau( 179) = (   0.0856324   0.4952434   1.7628092  )
       180           Li  tau( 180) = (   0.1935025   0.3879238   1.7744917  )
       181           Li  tau( 181) = (   0.2075105   0.5539458   1.7645390  )
       182           Li  tau( 182) = (   0.2253165   0.3730743   1.5392108  )
       183           Li  tau( 183) = (   0.3923040   0.2988743   1.5362537  )
       184           Li  tau( 184) = (   0.3600886   0.4735720   1.5230049  )
       185           Li  tau( 185) = (   0.2542773   0.5008076   1.6209768  )
       186           Li  tau( 186) = (   0.0324210   0.4936964   1.5194400  )
       187           Li  tau( 187) = (   0.1172062   0.3894965   1.6000371  )
       188           Li  tau( 188) = (   0.1682586   0.2915521   1.4644755  )
       189           Li  tau( 189) = (   0.1744961   0.2798538   1.6876296  )
       190           Cr  tau( 190) = (   0.3255115   0.3887379   1.7130927  )
       191           Cr  tau( 191) = (   0.1689108   0.4921682   1.4494559  )
       192           N   tau( 192) = (   0.4293544   0.3772792   1.7437221  )
       193           N   tau( 193) = (   0.3241714   0.3922315   1.6052734  )
       194           N   tau( 194) = (   0.0764325   0.4771592   1.4109954  )
       195           N   tau( 195) = (   0.2239770   0.3984264   1.4226545  )
       196           N   tau( 196) = (   0.5523334  -0.0000773   1.4074538  )
       197           N   tau( 197) = (   0.2733142   0.3109828   1.7416357  )
       198           N   tau( 198) = (   0.2771982   0.4637701   1.7587241  )
       199           N   tau( 199) = (   0.1630263   0.5005505   1.5533304  )
       200           O   tau( 200) = (   0.1689272   0.2792139   1.5706175  )
       201           Li  tau( 201) = (   0.9259927   0.0873080   0.8766270  )
       202           Li  tau( 202) = (   0.7947266   0.1809300   0.8766270  )
       203           Li  tau( 203) = (   0.7792805   0.0204373   0.8766270  )
       204           Li  tau( 204) = (   0.5862063   0.2029012   1.2836741  )
       205           Li  tau( 205) = (   0.7282549   0.1043624   1.2978112  )
       206           Li  tau( 206) = (   0.7396160   0.2729197   1.2703143  )
       207           Li  tau( 207) = (   0.7336608   0.0904568   1.0336250  )
       208           Li  tau( 208) = (   0.8881634   0.0127904   1.0336250  )
       209           Li  tau( 209) = (   0.8781757   0.1854282   1.0336250  )
       210           Li  tau( 210) = (   0.7779947   0.1992877   1.1108968  )
       211           Li  tau( 211) = (   0.6128733   0.2839810   1.1086526  )
       212           Li  tau( 212) = (   0.6210610   0.0997116   1.1295514  )
       213           Li  tau( 213) = (   0.6666690   0.0000000   0.9626942  )
       214           Li  tau( 214) = (   0.3278801   0.5875738   1.1942815  )
       215           Cr  tau( 215) = (   0.8263203   0.0931416   1.1977237  )
       216           Cr  tau( 216) = (   0.6666690   0.1924500   0.9478909  )
       217           N   tau( 217) = (   0.9253090   0.1012674   1.2373648  )
       218           N   tau( 218) = (   0.8309079   0.0888187   1.0959240  )
       219           N   tau( 219) = (   0.5697327   0.1982778   0.9168466  )
       220           N   tau( 220) = (   0.7100854   0.1055885   0.9168466  )
       221           N   tau( 221) = (   0.7201783   0.2734837   0.9168466  )
       222           N   tau( 222) = (   0.7676389   0.0189895   1.2386856  )
       223           N   tau( 223) = (   0.7986247   0.1844692   1.2322628  )
       224           N   tau( 224) = (   0.6666690   0.1924500   1.0497374  )
       225           O   tau( 225) = (   0.3189116   0.5736536   1.0788940  )
       226           Li  tau( 226) = (   0.9380727   0.0708841   1.3568724  )
       227           Li  tau( 227) = (   0.7949078   0.1886969   1.3743465  )
       228           Li  tau( 228) = (   0.7793915   0.0369480   1.3834868  )
       229           Li  tau( 229) = (   0.5713410   0.1990124   1.7795001  )
       230           Li  tau( 230) = (   0.7157425   0.1048428   1.7600858  )
       231           Li  tau( 231) = (   0.7097639   0.2525358   1.7810605  )
       232           Li  tau( 232) = (   0.7341108   0.0817250   1.5479070  )
       233           Li  tau( 233) = (   0.8787601   0.0154662   1.5160211  )
       234           Li  tau( 234) = (   0.8748912   0.1774351   1.5580583  )
       235           Li  tau( 235) = (   0.7373602   0.2219058   1.6424249  )
       236           Li  tau( 236) = (   0.6173791   0.2822376   1.6225898  )
       237           Li  tau( 237) = (   0.6151993   0.0958738   1.6007851  )
       238           Li  tau( 238) = (   0.5573337   0.0171154   1.5210588  )
       239           Li  tau( 239) = (   0.6692053   0.0048783   1.6665964  )
       240           Cr  tau( 240) = (   0.8368456   0.0866826   1.7084291  )
       241           Cr  tau( 241) = (   0.6757391   0.1974316   1.4549319  )
       242           N   tau( 242) = (   0.9431279   0.0804621   1.7323025  )
       243           N   tau( 243) = (   0.8375294   0.0836022   1.6114683  )
       244           N   tau( 244) = (   0.5805748   0.1958110   1.4208078  )
       245           N   tau( 245) = (   0.7167828   0.1148545   1.4197558  )
       246           N   tau( 246) = (   0.7366822   0.2772911   1.4171376  )
       247           N   tau( 247) = (   0.7789298   0.0129984   1.7506357  )
       248           N   tau( 248) = (   0.7993903   0.1767601   1.7483916  )
       249           N   tau( 249) = (   0.6795963   0.1925330   1.5543823  )
       250           O   tau( 250) = (   0.3249983   0.5732293   1.5602148  )
       251           Li  tau( 251) = (   0.7593284   0.3759836   0.8766270  )
       252           Li  tau( 252) = (   0.6280565   0.4696050   0.8766270  )
       253           Li  tau( 253) = (   0.6126161   0.3091127   0.8766270  )
       254           Li  tau( 254) = (   0.4042887   0.4977634   1.2815176  )
       255           Li  tau( 255) = (   0.5381455   0.3779449   1.2922709  )
       256           Li  tau( 256) = (   0.5509431   0.5409291   1.2750598  )
       257           Li  tau( 257) = (   0.5669941   0.3791318   1.0336250  )
       258           Li  tau( 258) = (   0.7214991   0.3014656   1.0336250  )
       259           Li  tau( 259) = (   0.7115055   0.4741032   1.0336250  )
       260           Li  tau( 260) = (   0.6032070   0.4914225   1.1083370  )
       261           Li  tau( 261) = (   0.4225547   0.5592056   1.1172611  )
       262           Li  tau( 262) = (   0.4742850   0.4127768   1.1413508  )
       263           Li  tau( 263) = (   0.5000000   0.2886750   0.9626942  )
       264           Li  tau( 264) = (   0.5018467   0.2907269   1.1938549  )
       265           Cr  tau( 265) = (   0.6643722   0.3819195   1.1986880  )
       266           Cr  tau( 266) = (   0.5000000   0.4811250   0.9478909  )
       267           N   tau( 267) = (   0.7604096   0.3725676   1.2240284  )
       268           N   tau( 268) = (   0.6717125   0.3874656   1.1006461  )
       269           N   tau( 269) = (   0.4030661   0.4869528   0.9168466  )
       270           N   tau( 270) = (   0.5434199   0.3942641   0.9168466  )
       271           N   tau( 271) = (   0.5535140   0.5621587   0.9168466  )
       272           N   tau( 272) = (   0.6221889   0.3005516   1.2420460  )
       273           N   tau( 273) = (   0.6204941   0.4634733   1.2367979  )
       274           N   tau( 274) = (   0.5000000   0.4811250   1.0497374  )
       275           O   tau( 275) = (   0.4931319   0.2947272   1.0717407  )
       276           Li  tau( 276) = (   0.7944870   0.3660724   1.3768654  )
       277           Li  tau( 277) = (   0.6290617   0.4625341   1.3484451  )
       278           Li  tau( 278) = (   0.6324162   0.3302978   1.3863680  )
       279           Li  tau( 279) = (   0.4096086   0.4945941   1.7850930  )
       280           Li  tau( 280) = (   0.5367493   0.3929685   1.7646442  )
       281           Li  tau( 281) = (   0.5479556   0.5457318   1.7802949  )
       282           Li  tau( 282) = (   0.5640948   0.3930632   1.5420277  )
       283           Li  tau( 283) = (   0.7254906   0.3148441   1.5234900  )
       284           Li  tau( 284) = (   0.7213120   0.4633739   1.5289835  )
       285           Li  tau( 285) = (   0.5953232   0.4779949   1.6205677  )
       286           Li  tau( 286) = (   0.4729969   0.5482314   1.6312742  )
       287           Li  tau( 287) = (   0.4403794   0.3975743   1.6236300  )
       288           Li  tau( 288) = (   0.5139752   0.2863993   1.4505780  )
       289           Li  tau( 289) = (   0.4927690   0.2865197   1.6856601  )
       290           Cr  tau( 290) = (   0.6611111   0.3718991   1.7129408  )
       291           Cr  tau( 291) = (   0.4901490   0.4745117   1.4359676  )
       292           N   tau( 292) = (   0.7552433   0.3630720   1.7534059  )
       293           N   tau( 293) = (   0.6646177   0.3800745   1.6104689  )
       294           N   tau( 294) = (   0.3960940   0.4890480   1.4073837  )
       295           N   tau( 295) = (   0.5414627   0.3960308   1.4032109  )
       296           N   tau( 296) = (   0.5476645   0.5630996   1.4033454  )
       297           N   tau( 297) = (   0.6054979   0.2949674   1.7399526  )
       298           N   tau( 298) = (   0.6247487   0.4645305   1.7479649  )
       299           N   tau( 299) = (   0.4883636   0.4758425   1.5396141  )
       300           O   tau( 300) = (   0.5067570   0.2879760   1.5637564  )

   Crystallographic axes

     site n.     atom                  positions (cryst. coord.)
         1           Li  tau(   1) = (  0.3097346  0.1512218  0.3321863  )
         2           Li  tau(   2) = (  0.2325188  0.3133799  0.3321863  )
         3           Li  tau(   3) = (  0.1244139  0.0353984  0.3321863  )
         4           Li  tau(   4) = (  0.0164707  0.3427561  0.4851226  )
         5           Li  tau(   5) = (  0.1069434  0.1959092  0.4825825  )
         6           Li  tau(   6) = (  0.2045892  0.4725822  0.4903557  )
         7           Li  tau(   7) = (  0.1192194  0.1566758  0.3916786  )
         8           Li  tau(   8) = (  0.2288830  0.0221536  0.3916786  )
         9           Li  tau(   9) = (  0.3185643  0.3211711  0.3916786  )
        10           Li  tau(  10) = (  0.2229488  0.3616274  0.4241133  )
        11           Li  tau(  11) = (  0.1120905  0.4584321  0.4234467  )
        12           Li  tau(  12) = (  0.0201236  0.1777304  0.4224103  )
        13           Li  tau(  13) = (  0.0000000  0.0000000  0.3648003  )
        14           Li  tau(  14) = (  0.9988477  0.0169407  0.4510846  )
        15           Cr  tau(  15) = (  0.2183650  0.1657900  0.4577992  )
        16           Cr  tau(  16) = (  0.1111111  0.3333332  0.3591908  )
        17           N   tau(  17) = (  0.3143222  0.1574177  0.4702717  )
        18           N   tau(  18) = (  0.2285760  0.1774439  0.4162294  )
        19           N   tau(  19) = (  0.0175419  0.3434273  0.3474270  )
        20           N   tau(  20) = (  0.1043816  0.1828847  0.3474270  )
        21           N   tau(  21) = (  0.2114100  0.4736876  0.3474270  )
        22           N   tau(  22) = (  0.1134758  0.0304031  0.4733521  )
        23           N   tau(  23) = (  0.2326998  0.3165037  0.4704267  )
        24           N   tau(  24) = (  0.1111111  0.3333332  0.3977842  )
        25           O   tau(  25) = ( -0.0011043 -0.0084587  0.4083699  )
        26           Li  tau(  26) = (  0.3236569  0.1764327  0.5206112  )
        27           Li  tau(  27) = (  0.2288214  0.2959865  0.5215767  )
        28           Li  tau(  28) = (  0.1147238  0.0332282  0.5179736  )
        29           Li  tau(  29) = (  0.0126727  0.3349457  0.6710384  )
        30           Li  tau(  30) = (  0.1065707  0.1953525  0.6737933  )
        31           Li  tau(  31) = (  0.2215608  0.5023573  0.6757289  )
        32           Li  tau(  32) = (  0.1331894  0.1534376  0.5833279  )
        33           Li  tau(  33) = (  0.2483682  0.0473585  0.5748616  )
        34           Li  tau(  34) = (  0.3145187  0.3061484  0.5827699  )
        35           Li  tau(  35) = (  0.2133511  0.3484257  0.6149056  )
        36           Li  tau(  36) = (  0.0883358  0.4788642  0.6134550  )
        37           Li  tau(  37) = (  0.0395156  0.1595424  0.6131494  )
        38           Li  tau(  38) = (  1.0019559  0.9908003  0.5550368  )
        39           Li  tau(  39) = (  0.9984283  0.9822864  0.6503100  )
        40           Cr  tau(  40) = (  0.2236896  0.1636228  0.6497586  )
        41           Cr  tau(  41) = (  0.1016036  0.3119142  0.5495867  )
        42           N   tau(  42) = (  0.3108144  0.1387277  0.6613209  )
        43           N   tau(  43) = (  0.2221459  0.1611165  0.6117011  )
        44           N   tau(  44) = (  0.0136202  0.3220386  0.5305546  )
        45           N   tau(  45) = (  0.1005233  0.1717359  0.5354643  )
        46           N   tau(  46) = (  0.2001104  0.4653497  0.5385404  )
        47           N   tau(  47) = (  0.1242226  0.0105070  0.6617195  )
        48           N   tau(  48) = (  0.2293608  0.3267000  0.6608912  )
        49           N   tau(  49) = (  0.1110026  0.3279754  0.5867340  )
        50           O   tau(  50) = ( -0.0000225  0.9865287  0.5954572  )
        51           Li  tau(  51) = (  0.3097348  0.6512226  0.3321863  )
        52           Li  tau(  52) = (  0.2325186  0.8133797  0.3321863  )
        53           Li  tau(  53) = (  0.1244139  0.5353989  0.3321863  )
        54           Li  tau(  54) = (  0.0149527  0.8600896  0.4873726  )
        55           Li  tau(  55) = (  0.1623424  0.7082037  0.4985983  )
        56           Li  tau(  56) = (  0.1929818  0.9460592  0.4783925  )
        57           Li  tau(  57) = (  0.1192194  0.6566756  0.3916786  )
        58           Li  tau(  58) = (  0.2288831  0.5221537  0.3916786  )
        59           Li  tau(  59) = (  0.3185642  0.8211709  0.3916786  )
        60           Li  tau(  60) = (  0.2206561  0.8463737  0.4238675  )
        61           Li  tau(  61) = (  0.1061122  0.9788417  0.4226694  )
        62           Li  tau(  62) = (  0.0200013  0.6967401  0.4207715  )
        63           Li  tau(  63) = ( -0.0000001  0.4999998  0.3648003  )
        64           Li  tau(  64) = (  0.0184289  0.5081382  0.4518774  )
        65           Cr  tau(  65) = (  0.2292892  0.6636448  0.4574626  )
        66           Cr  tau(  66) = (  0.1111110  0.8333330  0.3591908  )
        67           N   tau(  67) = (  0.3243787  0.6592072  0.4704688  )
        68           N   tau(  68) = (  0.2199600  0.6591414  0.4193807  )
        69           N   tau(  69) = (  0.0175418  0.8434271  0.3474270  )
        70           N   tau(  70) = (  0.1043818  0.6828855  0.3474270  )
        71           N   tau(  71) = (  0.2114098  0.9736874  0.3474270  )
        72           N   tau(  72) = (  0.1266287  0.5142056  0.4699771  )
        73           N   tau(  73) = (  0.2479530  0.8204117  0.4701521  )
        74           N   tau(  74) = (  0.1111110  0.8333330  0.3977842  )
        75           O   tau(  75) = ( -0.0007010  0.4853314  0.4099688  )
        76           Li  tau(  76) = (  0.3200207  0.6575329  0.5142088  )
        77           Li  tau(  77) = (  0.2753995  0.8827162  0.5193887  )
        78           Li  tau(  78) = (  0.1235115  0.5098722  0.5214173  )
        79           Li  tau(  79) = (  0.0129958  0.8217205  0.6798790  )
        80           Li  tau(  80) = (  0.0896715  0.6439881  0.6814403  )
        81           Li  tau(  81) = (  0.2101308  0.9762321  0.6807471  )
        82           Li  tau(  82) = (  0.1042347  0.6726558  0.5845858  )
        83           Li  tau(  83) = (  0.2176357  0.4827633  0.5829625  )
        84           Li  tau(  84) = (  0.2351065  0.6783315  0.5536504  )
        85           Li  tau(  85) = (  0.2309404  0.8730189  0.6075178  )
        86           Li  tau(  86) = (  0.0921854  0.9976765  0.6166750  )
        87           Li  tau(  87) = (  0.0135057  0.6567403  0.6242400  )
        88           Li  tau(  88) = (  0.0366447  0.4825811  0.5575636  )
        89           Li  tau(  89) = ( -0.0004739  0.5009908  0.6458033  )
        90           Cr  tau(  90) = (  0.2096630  0.6583134  0.6430927  )
        91           Cr  tau(  91) = (  0.1242507  0.8385389  0.5472348  )
        92           N   tau(  92) = (  0.3163951  0.6604735  0.6518403  )
        93           N   tau(  93) = (  0.2051851  0.6503733  0.6017311  )
        94           N   tau(  94) = (  0.0237378  0.8174823  0.5325566  )
        95           N   tau(  95) = (  0.1231714  0.6825788  0.5404759  )
        96           N   tau(  96) = (  0.2059024  0.9811496  0.5298858  )
        97           N   tau(  97) = (  0.1159771  0.5132844  0.6574874  )
        98           N   tau(  98) = (  0.2241628  0.8090594  0.6621270  )
        99           N   tau(  99) = (  0.1306645  0.8688242  0.5844729  )
       100           O   tau( 100) = (  0.0018763  0.5067140  0.5999661  )
       101           Li  tau( 101) = (  0.6430655  0.1512218  0.3321863  )
       102           Li  tau( 102) = (  0.5658521  0.3133799  0.3321863  )
       103           Li  tau( 103) = (  0.4577472  0.0353984  0.3321863  )
       104           Li  tau( 104) = (  0.3523870  0.3529474  0.4801221  )
       105           Li  tau( 105) = (  0.4234900  0.1721388  0.4850141  )
       106           Li  tau( 106) = (  0.5531654  0.4783449  0.4800667  )
       107           Li  tau( 107) = (  0.4525527  0.1566758  0.3916786  )
       108           Li  tau( 108) = (  0.5622164  0.0221536  0.3916786  )
       109           Li  tau( 109) = (  0.6518976  0.3211711  0.3916786  )
       110           Li  tau( 110) = (  0.5407719  0.3496829  0.4205943  )
       111           Li  tau( 111) = (  0.4362840  0.4815547  0.4204349  )
       112           Li  tau( 112) = (  0.3530185  0.1745074  0.4267663  )
       113           Li  tau( 113) = (  0.3333333  0.0000000  0.3648003  )
       114           Li  tau( 114) = (  0.3377381  0.9939848  0.4532327  )
       115           Cr  tau( 115) = (  0.5582542  0.1840478  0.4561737  )
       116           Cr  tau( 116) = (  0.4444444  0.3333332  0.3591908  )
       117           N   tau( 117) = (  0.6415911  0.1517603  0.4693105  )
       118           N   tau( 118) = (  0.5534567  0.1633333  0.4144998  )
       119           N   tau( 119) = (  0.3508752  0.3434273  0.3474270  )
       120           N   tau( 120) = (  0.4377148  0.1828847  0.3474270  )
       121           N   tau( 121) = (  0.5447432  0.4736876  0.3474270  )
       122           N   tau( 122) = (  0.4529663  0.0455961  0.4724597  )
       123           N   tau( 123) = (  0.5634353  0.3190545  0.4699328  )
       124           N   tau( 124) = (  0.4444444  0.3333332  0.3977842  )
       125           O   tau( 125) = (  0.3400965  1.0007335  0.4074641  )
       126           Li  tau( 126) = (  0.6547005  0.9790937  0.5522995  )
       127           Li  tau( 127) = (  0.5728622  0.3256999  0.5155597  )
       128           Li  tau( 128) = (  0.6632172  0.1828534  0.5182571  )
       129           Li  tau( 129) = (  0.3416465  0.3480573  0.6802798  )
       130           Li  tau( 130) = (  0.4426852  0.2089520  0.6700529  )
       131           Li  tau( 131) = (  0.5931931  0.4927785  0.6783864  )
       132           Li  tau( 132) = (  0.4283336  0.1561332  0.5816272  )
       133           Li  tau( 133) = (  0.4481169  0.0040721  0.6099626  )
       134           Li  tau( 134) = (  0.6695306  0.3275017  0.5847098  )
       135           Li  tau( 135) = (  0.5524899  0.3339699  0.6112338  )
       136           Li  tau( 136) = (  0.4642078  0.5049335  0.6112648  )
       137           Li  tau( 137) = (  0.3542656  0.1888084  0.6182717  )
       138           Li  tau( 138) = (  0.4560318  0.0437890  0.5265706  )
       139           Li  tau( 139) = (  0.3257000  0.0004796  0.6434802  )
       140           Cr  tau( 140) = (  0.5538087  0.1707905  0.6448666  )
       141           Cr  tau( 141) = (  0.4502881  0.3377537  0.5461054  )
       142           N   tau( 142) = (  0.6515131  0.1632574  0.6558442  )
       143           N   tau( 143) = (  0.5511692  0.1684927  0.6054914  )
       144           N   tau( 144) = (  0.3593721  0.3584317  0.5338765  )
       145           N   tau( 145) = (  0.4547618  0.2004370  0.5314072  )
       146           N   tau( 146) = (  0.5515190  0.4742929  0.5343593  )
       147           N   tau( 147) = (  0.4527688  0.0330657  0.6609178  )
       148           N   tau( 148) = (  0.5648613  0.3191912  0.6564599  )
       149           N   tau( 149) = (  0.4541119  0.3557857  0.5846456  )
       150           O   tau( 150) = (  0.3372025  0.0202881  0.5962699  )
       151           Li  tau( 151) = (  0.6430682  0.6512226  0.3321863  )
       152           Li  tau( 152) = (  0.5658520  0.8133797  0.3321863  )
       153           Li  tau( 153) = (  0.4577474  0.5353989  0.3321863  )
       154           Li  tau( 154) = (  0.3853997  0.8684568  0.4815239  )
       155           Li  tau( 155) = (  0.4464010  0.6962674  0.4870338  )
       156           Li  tau( 156) = (  0.5549382  0.9910514  0.4879041  )
       157           Li  tau( 157) = (  0.4525527  0.6566756  0.3916786  )
       158           Li  tau( 158) = (  0.5622164  0.5221537  0.3916786  )
       159           Li  tau( 159) = (  0.6518976  0.8211709  0.3916786  )
       160           Li  tau( 160) = (  0.5384741  0.8374052  0.4210417  )
       161           Li  tau( 161) = (  0.4501239  0.9863981  0.4276943  )
       162           Li  tau( 162) = (  0.3664635  0.7120897  0.4236372  )
       163           Li  tau( 163) = (  0.3333333  0.4999998  0.3648003  )
       164           Li  tau( 164) = (  0.3316607  0.5009958  0.4522561  )
       165           Cr  tau( 165) = (  0.5447816  0.6681756  0.4558836  )
       166           Cr  tau( 166) = (  0.4444443  0.8333330  0.3591908  )
       167           N   tau( 167) = (  0.6387791  0.6570450  0.4700170  )
       168           N   tau( 168) = (  0.5493555  0.6635021  0.4155894  )
       169           N   tau( 169) = (  0.3508751  0.8434271  0.3474270  )
       170           N   tau( 170) = (  0.4377151  0.6828855  0.3474270  )
       171           N   tau( 171) = (  0.5447431  0.9736874  0.3474270  )
       172           N   tau( 172) = (  0.4514691  0.5428875  0.4692065  )
       173           N   tau( 173) = (  0.5607978  0.8267757  0.4719415  )
       174           N   tau( 174) = (  0.4444443  0.8333330  0.3977842  )
       175           O   tau( 175) = (  0.3256465  0.4936480  0.4084518  )
       176           Li  tau( 176) = (  0.6237805  0.6625536  0.5204827  )
       177           Li  tau( 177) = (  0.5576855  0.8197426  0.5197010  )
       178           Li  tau( 178) = (  0.4614153  0.5193113  0.5202325  )
       179           Li  tau( 179) = (  0.3715613  0.8577867  0.6679934  )
       180           Li  tau( 180) = (  0.4174705  0.6719037  0.6724203  )
       181           Li  tau( 181) = (  0.5273312  0.9594623  0.6686489  )
       182           Li  tau( 182) = (  0.4407111  0.6461837  0.5832637  )
       183           Li  tau( 183) = (  0.5648592  0.5176654  0.5821432  )
       184           Li  tau( 184) = (  0.6335055  0.8202508  0.5771227  )
       185           Li  tau( 185) = (  0.5434188  0.8674243  0.6142478  )
       186           Li  tau( 186) = (  0.3174568  0.8551073  0.5757718  )
       187           Li  tau( 187) = (  0.3420821  0.6746277  0.6063130  )
       188           Li  tau( 188) = (  0.3365863  0.5049831  0.5549437  )
       189           Li  tau( 189) = (  0.3360698  0.4847210  0.6395051  )
       190           Cr  tau( 190) = (  0.5499494  0.6733138  0.6491540  )
       191           Cr  tau( 191) = (  0.4530643  0.8524603  0.5492523  )
       192           N   tau( 192) = (  0.6471766  0.6534668  0.6607606  )
       193           N   tau( 193) = (  0.5506264  0.6793650  0.6082973  )
       194           N   tau( 194) = (  0.3519205  0.8264639  0.5346782  )
       195           N   tau( 195) = (  0.4540086  0.6900947  0.5390962  )
       196           N   tau( 196) = (  0.5522888 -0.0001338  0.5333361  )
       197           N   tau( 197) = (  0.4528602  0.5386381  0.6599700  )
       198           N   tau( 198) = (  0.5449560  0.8032735  0.6664454  )
       199           N   tau( 199) = (  0.4520193  0.8669789  0.5886141  )
       200           O   tau( 200) = (  0.3301314  0.4836126  0.5951649  )
       201           Li  tau( 201) = (  0.9764000  0.1512218  0.3321863  )
       202           Li  tau( 202) = (  0.8991866  0.3133799  0.3321863  )
       203           Li  tau( 203) = (  0.7910799  0.0353984  0.3321863  )
       204           Li  tau( 204) = (  0.7033513  0.3514351  0.4864314  )
       205           Li  tau( 205) = (  0.7885086  0.1807610  0.4917885  )
       206           Li  tau( 206) = (  0.8971863  0.4727108  0.4813689  )
       207           Li  tau( 207) = (  0.7858861  0.1566758  0.3916786  )
       208           Li  tau( 208) = (  0.8955479  0.0221536  0.3916786  )
       209           Li  tau( 209) = (  0.9852327  0.3211711  0.3916786  )
       210           Li  tau( 210) = (  0.8930535  0.3451764  0.4209597  )
       211           Li  tau( 211) = (  0.7768298  0.4918695  0.4201093  )
       212           Li  tau( 212) = (  0.6786295  0.1727056  0.4280287  )
       213           Li  tau( 213) = (  0.6666690  0.0000000  0.3648003  )
       214           Li  tau( 214) = (  0.6671160  1.0177077  0.4525573  )
       215           Cr  tau( 215) = (  0.8800956  0.1613260  0.4538617  )
       216           Cr  tau( 216) = (  0.7777800  0.3333332  0.3591908  )
       217           N   tau( 217) = (  0.9837757  0.1754002  0.4688831  )
       218           N   tau( 218) = (  0.8821874  0.1538385  0.4152860  )
       219           N   tau( 219) = (  0.6842085  0.3434273  0.3474270  )
       220           N   tau( 220) = (  0.7710469  0.1828847  0.3474270  )
       221           N   tau( 221) = (  0.8780741  0.4736876  0.3474270  )
       222           N   tau( 222) = (  0.7786024  0.0328908  0.4693836  )
       223           N   tau( 223) = (  0.9051280  0.3195100  0.4669498  )
       224           N   tau( 224) = (  0.7777800  0.3333332  0.3977842  )
       225           O   tau( 225) = (  0.6501107  0.9935971  0.4088327  )
       226           Li  tau( 226) = (  0.9789976  0.1227748  0.5141690  )
       227           Li  tau( 227) = (  0.9038520  0.3268326  0.5207906  )
       228           Li  tau( 228) = (  0.8007234  0.0639958  0.5242542  )
       229           Li  tau( 229) = (  0.6862409  0.3446997  0.6743182  )
       230           Li  tau( 230) = (  0.7762736  0.1815931  0.6669614  )
       231           Li  tau( 231) = (  0.8555655  0.4374048  0.6749095  )
       232           Li  tau( 232) = (  0.7812948  0.1415519  0.5865590  )
       233           Li  tau( 233) = (  0.8876895  0.0267882  0.5744763  )
       234           Li  tau( 234) = (  0.9773335  0.3073267  0.5904057  )
       235           Li  tau( 235) = (  0.8654776  0.3843522  0.6223753  )
       236           Li  tau( 236) = (  0.7803291  0.4888499  0.6148591  )
       237           Li  tau( 237) = (  0.6705520  0.1660582  0.6065965  )
       238           Li  tau( 238) = (  0.5672153  0.0296447  0.5763853  )
       239           Li  tau( 239) = (  0.6720218  0.0084494  0.6315348  )
       240           Cr  tau( 240) = (  0.8868919  0.1501387  0.6473867  )
       241           Cr  tau( 241) = (  0.7897263  0.3419615  0.5513273  )
       242           N   tau( 242) = (  0.9895827  0.1393644  0.6564333  )
       243           N   tau( 243) = (  0.8857971  0.1448032  0.6106447  )
       244           N   tau( 244) = (  0.6936264  0.3391546  0.5383964  )
       245           N   tau( 245) = (  0.7830941  0.1989338  0.5379978  )
       246           N   tau( 246) = (  0.8967763  0.4802823  0.5370057  )
       247           N   tau( 247) = (  0.7864344  0.0225139  0.6633804  )
       248           N   tau( 248) = (  0.9014428  0.3061575  0.6625300  )
       249           N   tau( 249) = (  0.7907553  0.3334769  0.5890128  )
       250           O   tau( 250) = (  0.6559524  0.9928623  0.5912229  )
       251           Li  tau( 251) = (  0.9764026  0.6512226  0.3321863  )
       252           Li  tau( 252) = (  0.8991830  0.8133797  0.3321863  )
       253           Li  tau( 253) = (  0.7910824  0.5353989  0.3321863  )
       254           Li  tau( 254) = (  0.6916725  0.8621515  0.4856143  )
       255           Li  tau( 255) = (  0.7563521  0.6546197  0.4896891  )
       256           Li  tau( 256) = (  0.8632487  0.9369167  0.4831671  )
       257           Li  tau( 257) = (  0.7858860  0.6566756  0.3916786  )
       258           Li  tau( 258) = (  0.8955503  0.5221537  0.3916786  )
       259           Li  tau( 259) = (  0.9852291  0.8211709  0.3916786  )
       260           Li  tau( 260) = (  0.8869299  0.8511687  0.4199897  )
       261           Li  tau( 261) = (  0.7454122  0.9685725  0.4233714  )
       262           Li  tau( 262) = (  0.7126018  0.7149503  0.4324999  )
       263           Li  tau( 263) = (  0.6666666  0.4999998  0.3648003  )
       264           Li  tau( 264) = (  0.6696980  0.5035538  0.4523956  )
       265           Cr  tau( 265) = (  0.8848735  0.6615040  0.4542271  )
       266           Cr  tau( 266) = (  0.7777776  0.8333330  0.3591908  )
       267           N   tau( 267) = (  0.9755116  0.6453061  0.4638295  )
       268           N   tau( 268) = (  0.8954159  0.6711101  0.4170754  )
       269           N   tau( 269) = (  0.6842084  0.8434271  0.3474270  )
       270           N   tau( 270) = (  0.7710484  0.6828855  0.3474270  )
       271           N   tau( 271) = (  0.8780764  0.9736874  0.3474270  )
       272           N   tau( 272) = (  0.7957124  0.5205706  0.4706570  )
       273           N   tau( 273) = (  0.8880805  0.8027592  0.4686683  )
       274           N   tau( 274) = (  0.7777776  0.8333330  0.3977842  )
       275           O   tau( 275) = (  0.6632927  0.5104826  0.4061221  )
       276           Li  tau( 276) = (  1.0058390  0.6340560  0.5217450  )
       277           Li  tau( 277) = (  0.8961059  0.8011326  0.5109756  )
       278           Li  tau( 278) = (  0.8231138  0.5720926  0.5253459  )
       279           Li  tau( 279) = (  0.6951627  0.8566621  0.6764375  )
       280           Li  tau( 280) = (  0.7636298  0.6806414  0.6686887  )
       281           Li  tau( 281) = (  0.8630340  0.9452353  0.6746194  )
       282           Li  tau( 282) = (  0.7910300  0.6808054  0.5843312  )
       283           Li  tau( 283) = (  0.9072659  0.5453259  0.5773065  )
       284           Li  tau( 284) = (  0.9888411  0.8025872  0.5793882  )
       285           Li  tau( 285) = (  0.8712937  0.8279114  0.6140928  )
       286           Li  tau( 286) = (  0.7895185  0.9495646  0.6181499  )
       287           Li  tau( 287) = (  0.6699190  0.6886189  0.6152533  )
       288           Li  tau( 288) = (  0.6793279  0.4960581  0.5496775  )
       289           Li  tau( 289) = (  0.6581912  0.4962666  0.6387588  )
       290           Cr  tau( 290) = (  0.8758272  0.6441481  0.6490964  )
       291           Cr  tau( 291) = (  0.7641085  0.8218785  0.5441410  )
       292           N   tau( 292) = (  0.9648631  0.6288592  0.6644301  )
       293           N   tau( 293) = (  0.8840538  0.6583083  0.6102660  )
       294           N   tau( 294) = (  0.6784459  0.8470559  0.5333096  )
       295           N   tau( 295) = (  0.7701112  0.6859455  0.5317283  )
       296           N   tau( 296) = (  0.8727702  0.9753171  0.5317793  )
       297           N   tau( 297) = (  0.7757975  0.5108986  0.6593322  )
       298           N   tau( 298) = (  0.8929455  0.8045904  0.6623684  )
       299           N   tau( 299) = (  0.7630914  0.8241833  0.5834165  )
       300           O   tau( 300) = (  0.6730201  0.4987891  0.5925649  )

     number of k points=     1  Gaussian smearing, width (Ry)=  0.0147
                       cart. coord. in units 2pi/alat
        k(    1) = (   0.0000000   0.0000000   0.0000000), wk =   2.0000000

                       cryst. coord.
        k(    1) = (   0.0000000   0.0000000   0.0000000), wk =   2.0000000

     Dense  grid:  5457965 G-vectors     FFT dimensions: ( 240, 160, 640)

     Smooth grid:  2970742 G-vectors     FFT dimensions: ( 200, 135, 540)

     Dynamical RAM for                 wfc:    1182.84 MB

     Dynamical RAM for     wfc (w. buffer):    1182.84 MB

     Dynamical RAM for           str. fact:      83.28 MB

     Dynamical RAM for           local pot:       0.00 MB

     Dynamical RAM for          nlocal pot:    3977.76 MB

     Dynamical RAM for                qrad:       7.46 MB

     Dynamical RAM for          rho,v,vnew:     203.09 MB

     Dynamical RAM for               rhoin:      67.70 MB

     Dynamical RAM for            rho*nmix:     333.13 MB

     Dynamical RAM for           G-vectors:      83.74 MB

     Dynamical RAM for          h,s,v(r/c):      63.83 MB

     Dynamical RAM for          <psi|beta>:      17.89 MB

     Dynamical RAM for                 psi:    2365.69 MB

     Dynamical RAM for                hpsi:    2365.69 MB

     Dynamical RAM for                spsi:    2365.69 MB

     Dynamical RAM for      wfcinit/wfcrot:    4336.08 MB

     Dynamical RAM for           addusdens:    7370.47 MB

     Dynamical RAM for          addusforce:   14335.60 MB

     Dynamical RAM for         addusstress:    4184.93 MB

     Estimated static dynamical RAM per process >       5.81 GB

     Estimated max dynamical RAM per process >      20.13 GB

     Estimated total dynamical RAM >      80.52 GB

     Check: negative core charge=   -0.000002

     Initial potential from superposition of free atoms

     starting charge    1292.2742, renormalised to    1392.0000

     negative rho (up, down):  2.535E-02 0.000E+00
     Starting wfcs are 1512 randomized atomic wfcs
     Checking if some PAW data can be deallocated... 

     total cpu time spent up to now is       34.8 secs

     per-process dynamical memory:  1708.4 Mb

     Self-consistent Calculation
[tb_dev] Currently allocated     1.26E+02 Mbytes, locked:    0 /  11
[tb_pin] Currently allocated     0.00E+00 Mbytes, locked:    0 /   0

     iteration #  1     ecut=    90.00 Ry     beta= 0.20
     Davidson diagonalization with overlap

---- Real-time Memory Report at c_bands before calling an iterative solver
         10171 MiB given to the printing process from OS
          1746 MiB allocation reported by mallinfo(arena+hblkhd)
        465838 MiB available memory on the node where the printing process lives
     GPU memory used/free/total (MiB): 16367 / 48601 / 64969
------------------
     ethr =  1.00E-02,  avg # of iterations =  2.0

     negative rho (up, down):  4.063E-02 0.000E+00

     total cpu time spent up to now is       38.5 secs

     total energy              =   -9071.43334446 Ry
     estimated scf accuracy    <     237.71580588 Ry
[tb_dev] Currently allocated     2.41E+01 Mbytes, locked:    0 /   6
[tb_pin] Currently allocated     0.00E+00 Mbytes, locked:    0 /   0

     iteration #  2     ecut=    90.00 Ry     beta= 0.20
     Davidson diagonalization with overlap

---- Real-time Memory Report at c_bands before calling an iterative solver
         10502 MiB given to the printing process from OS
          2013 MiB allocation reported by mallinfo(arena+hblkhd)
        464881 MiB available memory on the node where the printing process lives
     GPU memory used/free/total (MiB): 31249 / 33719 / 64969
------------------
     ethr =  1.00E-02,  avg # of iterations =  4.0

     negative rho (up, down):  6.868E-02 0.000E+00

     total cpu time spent up to now is       42.3 secs

     total energy              =   -9062.44282003 Ry
     estimated scf accuracy    <      52.49408828 Ry
[tb_dev] Currently allocated     2.41E+01 Mbytes, locked:    0 /   6
[tb_pin] Currently allocated     0.00E+00 Mbytes, locked:    0 /   0

     iteration #  3     ecut=    90.00 Ry     beta= 0.20
     Davidson diagonalization with overlap

---- Real-time Memory Report at c_bands before calling an iterative solver
         10537 MiB given to the printing process from OS
         -2047 MiB allocation reported by mallinfo(arena+hblkhd)
        464752 MiB available memory on the node where the printing process lives
     GPU memory used/free/total (MiB): 31249 / 33719 / 64969
------------------
     ethr =  3.77E-03,  avg # of iterations =  7.0

     negative rho (up, down):  5.711E-02 0.000E+00

     total cpu time spent up to now is       47.8 secs

     total energy              =   -9123.86050477 Ry
     estimated scf accuracy    <     723.35615407 Ry
[tb_dev] Currently allocated     2.41E+01 Mbytes, locked:    0 /   6
[tb_pin] Currently allocated     0.00E+00 Mbytes, locked:    0 /   0

     iteration #  4     ecut=    90.00 Ry     beta= 0.20
     Davidson diagonalization with overlap

---- Real-time Memory Report at c_bands before calling an iterative solver
         10540 MiB given to the printing process from OS
         -2024 MiB allocation reported by mallinfo(arena+hblkhd)
        464524 MiB available memory on the node where the printing process lives
     GPU memory used/free/total (MiB): 31249 / 33719 / 64969
------------------
     ethr =  3.77E-03,  avg # of iterations =  2.0

     negative rho (up, down):  4.208E-02 0.000E+00

     total cpu time spent up to now is       51.2 secs

     total energy              =   -9079.60159002 Ry
     estimated scf accuracy    <     859.73013547 Ry
[tb_dev] Currently allocated     2.41E+01 Mbytes, locked:    0 /   6
[tb_pin] Currently allocated     0.00E+00 Mbytes, locked:    0 /   0

     iteration #  5     ecut=    90.00 Ry     beta= 0.20
     Davidson diagonalization with overlap

---- Real-time Memory Report at c_bands before calling an iterative solver
         10564 MiB given to the printing process from OS
         -2000 MiB allocation reported by mallinfo(arena+hblkhd)
        464475 MiB available memory on the node where the printing process lives
     GPU memory used/free/total (MiB): 31249 / 33719 / 64969
------------------
     ethr =  3.77E-03,  avg # of iterations =  2.0

     negative rho (up, down):  3.507E-02 0.000E+00

     total cpu time spent up to now is       54.6 secs

     total energy              =   -9091.65864303 Ry
     estimated scf accuracy    <      37.87411709 Ry
[tb_dev] Currently allocated     2.41E+01 Mbytes, locked:    0 /   6
[tb_pin] Currently allocated     0.00E+00 Mbytes, locked:    0 /   0

     iteration #  6     ecut=    90.00 Ry     beta= 0.20
     Davidson diagonalization with overlap

---- Real-time Memory Report at c_bands before calling an iterative solver
         10587 MiB given to the printing process from OS
         -1977 MiB allocation reported by mallinfo(arena+hblkhd)
        464335 MiB available memory on the node where the printing process lives
     GPU memory used/free/total (MiB): 31273 / 33695 / 64969
------------------
     ethr =  2.72E-03,  avg # of iterations =  2.0

     negative rho (up, down):  2.406E-02 0.000E+00

     total cpu time spent up to now is       58.1 secs

     total energy              =   -9104.98277482 Ry
     estimated scf accuracy    <      11.09613529 Ry
[tb_dev] Currently allocated     2.41E+01 Mbytes, locked:    0 /   6
[tb_pin] Currently allocated     0.00E+00 Mbytes, locked:    0 /   0

     iteration #  7     ecut=    90.00 Ry     beta= 0.20
     Davidson diagonalization with overlap

---- Real-time Memory Report at c_bands before calling an iterative solver
         10610 MiB given to the printing process from OS
         -1953 MiB allocation reported by mallinfo(arena+hblkhd)
        464194 MiB available memory on the node where the printing process lives
     GPU memory used/free/total (MiB): 31273 / 33695 / 64969
------------------
     ethr =  7.97E-04,  avg # of iterations = 10.0

     negative rho (up, down):  3.155E-02 0.000E+00

     total cpu time spent up to now is       63.3 secs

     total energy              =   -9085.99845603 Ry
     estimated scf accuracy    <     116.09667149 Ry
[tb_dev] Currently allocated     2.41E+01 Mbytes, locked:    0 /   6
[tb_pin] Currently allocated     0.00E+00 Mbytes, locked:    0 /   0

     iteration #  8     ecut=    90.00 Ry     beta= 0.20
     Davidson diagonalization with overlap

---- Real-time Memory Report at c_bands before calling an iterative solver
         10634 MiB given to the printing process from OS
         -1930 MiB allocation reported by mallinfo(arena+hblkhd)
        464100 MiB available memory on the node where the printing process lives
     GPU memory used/free/total (MiB): 31803 / 33165 / 64969
------------------
     ethr =  7.97E-04,  avg # of iterations =  6.0

     negative rho (up, down):  3.312E-02 0.000E+00

     total cpu time spent up to now is       68.6 secs

     total energy              =   -9095.54219548 Ry
     estimated scf accuracy    <       2.58690572 Ry
[tb_dev] Currently allocated     2.41E+01 Mbytes, locked:    0 /   6
[tb_pin] Currently allocated     0.00E+00 Mbytes, locked:    0 /   0

     iteration #  9     ecut=    90.00 Ry     beta= 0.20
     Davidson diagonalization with overlap

---- Real-time Memory Report at c_bands before calling an iterative solver
         10667 MiB given to the printing process from OS
         -1918 MiB allocation reported by mallinfo(arena+hblkhd)
        464178 MiB available memory on the node where the printing process lives
     GPU memory used/free/total (MiB): 32651 / 32317 / 64969
------------------
     ethr =  1.86E-04,  avg # of iterations = 13.0

     negative rho (up, down):  3.325E-02 0.000E+00

     total cpu time spent up to now is       73.7 secs

     total energy              =   -9096.15483579 Ry
     estimated scf accuracy    <       3.84546253 Ry
[tb_dev] Currently allocated     2.41E+01 Mbytes, locked:    0 /   6
[tb_pin] Currently allocated     0.00E+00 Mbytes, locked:    0 /   0

     iteration # 10     ecut=    90.00 Ry     beta= 0.20
     Davidson diagonalization with overlap

---- Real-time Memory Report at c_bands before calling an iterative solver
         10690 MiB given to the printing process from OS
         -1894 MiB allocation reported by mallinfo(arena+hblkhd)
        464083 MiB available memory on the node where the printing process lives
     GPU memory used/free/total (MiB): 32653 / 32315 / 64969
------------------
     ethr =  1.86E-04,  avg # of iterations =  1.0

     negative rho (up, down):  3.231E-02 0.000E+00

     total cpu time spent up to now is       77.1 secs

     total energy              =   -9095.55039707 Ry
     estimated scf accuracy    <       2.93651638 Ry
[tb_dev] Currently allocated     2.41E+01 Mbytes, locked:    0 /   6
[tb_pin] Currently allocated     0.00E+00 Mbytes, locked:    0 /   0

     iteration # 11     ecut=    90.00 Ry     beta= 0.20
     Davidson diagonalization with overlap

---- Real-time Memory Report at c_bands before calling an iterative solver
         10692 MiB given to the printing process from OS
         -1893 MiB allocation reported by mallinfo(arena+hblkhd)
        463889 MiB available memory on the node where the printing process lives
     GPU memory used/free/total (MiB): 32653 / 32315 / 64969
------------------
     ethr =  1.86E-04,  avg # of iterations =  2.0

     negative rho (up, down):  3.351E-02 0.000E+00

     total cpu time spent up to now is       80.6 secs

     total energy              =   -9095.90366248 Ry
     estimated scf accuracy    <       0.80694044 Ry
[tb_dev] Currently allocated     2.41E+01 Mbytes, locked:    0 /   6
[tb_pin] Currently allocated     0.00E+00 Mbytes, locked:    0 /   0

     iteration # 12     ecut=    90.00 Ry     beta= 0.20
     Davidson diagonalization with overlap

---- Real-time Memory Report at c_bands before calling an iterative solver
         10692 MiB given to the printing process from OS
         -1893 MiB allocation reported by mallinfo(arena+hblkhd)
        463889 MiB available memory on the node where the printing process lives
     GPU memory used/free/total (MiB): 32653 / 32315 / 64969
------------------
     ethr =  5.80E-05,  avg # of iterations = 22.0

     negative rho (up, down):  3.704E-02 0.000E+00

     total cpu time spent up to now is       86.4 secs

     total energy              =   -9095.79007851 Ry
     estimated scf accuracy    <       0.41916584 Ry
[tb_dev] Currently allocated     2.41E+01 Mbytes, locked:    0 /   6
[tb_pin] Currently allocated     0.00E+00 Mbytes, locked:    0 /   0

     iteration # 13     ecut=    90.00 Ry     beta= 0.20
     Davidson diagonalization with overlap

---- Real-time Memory Report at c_bands before calling an iterative solver
         10692 MiB given to the printing process from OS
         -1893 MiB allocation reported by mallinfo(arena+hblkhd)
        463889 MiB available memory on the node where the printing process lives
     GPU memory used/free/total (MiB): 32653 / 32315 / 64969
------------------
     ethr =  3.01E-05,  avg # of iterations = 35.0

     negative rho (up, down):  3.704E-02 0.000E+00

     total cpu time spent up to now is       93.7 secs

     total energy              =   -9095.74373637 Ry
     estimated scf accuracy    <       1.19764361 Ry
[tb_dev] Currently allocated     2.41E+01 Mbytes, locked:    0 /   6
[tb_pin] Currently allocated     0.00E+00 Mbytes, locked:    0 /   0

     iteration # 14     ecut=    90.00 Ry     beta= 0.20
     Davidson diagonalization with overlap

---- Real-time Memory Report at c_bands before calling an iterative solver
         10692 MiB given to the printing process from OS
         -1893 MiB allocation reported by mallinfo(arena+hblkhd)
        463889 MiB available memory on the node where the printing process lives
     GPU memory used/free/total (MiB): 32653 / 32315 / 64969
------------------
     ethr =  3.01E-05,  avg # of iterations = 22.0

     negative rho (up, down):  3.696E-02 0.000E+00

     total cpu time spent up to now is       99.8 secs

     total energy              =   -9095.88246160 Ry
     estimated scf accuracy    <       0.07679050 Ry
[tb_dev] Currently allocated     2.41E+01 Mbytes, locked:    0 /   6
[tb_pin] Currently allocated     0.00E+00 Mbytes, locked:    0 /   0

     iteration # 15     ecut=    90.00 Ry     beta= 0.20
     Davidson diagonalization with overlap

---- Real-time Memory Report at c_bands before calling an iterative solver
         10692 MiB given to the printing process from OS
         -1893 MiB allocation reported by mallinfo(arena+hblkhd)
        463936 MiB available memory on the node where the printing process lives
     GPU memory used/free/total (MiB): 32653 / 32315 / 64969
------------------
     c_bands:  5 eigenvalues not converged
     ethr =  5.52E-06,  avg # of iterations = 40.0

     negative rho (up, down):  3.815E-02 0.000E+00

     total cpu time spent up to now is      107.1 secs

     total energy              =   -9095.84524764 Ry
     estimated scf accuracy    <       0.39932886 Ry
[tb_dev] Currently allocated     2.41E+01 Mbytes, locked:    0 /   6
[tb_pin] Currently allocated     0.00E+00 Mbytes, locked:    0 /   0

     iteration # 16     ecut=    90.00 Ry     beta= 0.20
     Davidson diagonalization with overlap

---- Real-time Memory Report at c_bands before calling an iterative solver
         10692 MiB given to the printing process from OS
         -1893 MiB allocation reported by mallinfo(arena+hblkhd)
        463889 MiB available memory on the node where the printing process lives
     GPU memory used/free/total (MiB): 32653 / 32315 / 64969
------------------
     c_bands:  1 eigenvalues not converged
     ethr =  5.52E-06,  avg # of iterations = 20.0

     negative rho (up, down):  3.876E-02 0.000E+00

     total cpu time spent up to now is      111.7 secs

     total energy              =   -9095.86537774 Ry
     estimated scf accuracy    <       0.02136511 Ry
[tb_dev] Currently allocated     2.41E+01 Mbytes, locked:    0 /   6
[tb_pin] Currently allocated     0.00E+00 Mbytes, locked:    0 /   0

     iteration # 17     ecut=    90.00 Ry     beta= 0.20
     Davidson diagonalization with overlap

---- Real-time Memory Report at c_bands before calling an iterative solver
         10692 MiB given to the printing process from OS
         -1893 MiB allocation reported by mallinfo(arena+hblkhd)
        463889 MiB available memory on the node where the printing process lives
     GPU memory used/free/total (MiB): 32653 / 32315 / 64969
------------------
     c_bands:  1 eigenvalues not converged
     ethr =  1.53E-06,  avg # of iterations = 20.0

     negative rho (up, down):  3.913E-02 0.000E+00

     total cpu time spent up to now is      116.8 secs

     total energy              =   -9095.86916207 Ry
     estimated scf accuracy    <       0.00805209 Ry
[tb_dev] Currently allocated     2.41E+01 Mbytes, locked:    0 /   6
[tb_pin] Currently allocated     0.00E+00 Mbytes, locked:    0 /   0

     iteration # 18     ecut=    90.00 Ry     beta= 0.20
     Davidson diagonalization with overlap

---- Real-time Memory Report at c_bands before calling an iterative solver
         10692 MiB given to the printing process from OS
         -1893 MiB allocation reported by mallinfo(arena+hblkhd)
        463889 MiB available memory on the node where the printing process lives
     GPU memory used/free/total (MiB): 32653 / 32315 / 64969
------------------
     ethr =  5.78E-07,  avg # of iterations =  1.0

     negative rho (up, down):  3.949E-02 0.000E+00

     total cpu time spent up to now is      120.2 secs

     total energy              =   -9095.86870070 Ry
     estimated scf accuracy    <       0.00453850 Ry
[tb_dev] Currently allocated     2.41E+01 Mbytes, locked:    0 /   6
[tb_pin] Currently allocated     0.00E+00 Mbytes, locked:    0 /   0

     iteration # 19     ecut=    90.00 Ry     beta= 0.20
     Davidson diagonalization with overlap

---- Real-time Memory Report at c_bands before calling an iterative solver
         10692 MiB given to the printing process from OS
         -1893 MiB allocation reported by mallinfo(arena+hblkhd)
        463889 MiB available memory on the node where the printing process lives
     GPU memory used/free/total (MiB): 32653 / 32315 / 64969
------------------
     ethr =  3.26E-07,  avg # of iterations =  3.0

     negative rho (up, down):  3.965E-02 0.000E+00

     total cpu time spent up to now is      123.8 secs

     total energy              =   -9095.86913132 Ry
     estimated scf accuracy    <       0.00062064 Ry
[tb_dev] Currently allocated     2.41E+01 Mbytes, locked:    0 /   6
[tb_pin] Currently allocated     0.00E+00 Mbytes, locked:    0 /   0

     iteration # 20     ecut=    90.00 Ry     beta= 0.20
     Davidson diagonalization with overlap

---- Real-time Memory Report at c_bands before calling an iterative solver
         10692 MiB given to the printing process from OS
         -1893 MiB allocation reported by mallinfo(arena+hblkhd)
        463889 MiB available memory on the node where the printing process lives
     GPU memory used/free/total (MiB): 32653 / 32315 / 64969
------------------
     ethr =  4.46E-08,  avg # of iterations =  5.0

     negative rho (up, down):  3.983E-02 0.000E+00

     total cpu time spent up to now is      127.8 secs

     total energy              =   -9095.86919833 Ry
     estimated scf accuracy    <       0.00060982 Ry
[tb_dev] Currently allocated     2.41E+01 Mbytes, locked:    0 /   6
[tb_pin] Currently allocated     0.00E+00 Mbytes, locked:    0 /   0

     iteration # 21     ecut=    90.00 Ry     beta= 0.20
     Davidson diagonalization with overlap

---- Real-time Memory Report at c_bands before calling an iterative solver
         10692 MiB given to the printing process from OS
         -1893 MiB allocation reported by mallinfo(arena+hblkhd)
        463888 MiB available memory on the node where the printing process lives
     GPU memory used/free/total (MiB): 32653 / 32315 / 64969
------------------
     ethr =  4.38E-08,  avg # of iterations =  2.0

     negative rho (up, down):  3.995E-02 0.000E+00

     total cpu time spent up to now is      131.3 secs

     total energy              =   -9095.86921769 Ry
     estimated scf accuracy    <       0.00013973 Ry
[tb_dev] Currently allocated     2.41E+01 Mbytes, locked:    0 /   6
[tb_pin] Currently allocated     0.00E+00 Mbytes, locked:    0 /   0

     iteration # 22     ecut=    90.00 Ry     beta= 0.20
     Davidson diagonalization with overlap

---- Real-time Memory Report at c_bands before calling an iterative solver
         10692 MiB given to the printing process from OS
         -1893 MiB allocation reported by mallinfo(arena+hblkhd)
        463888 MiB available memory on the node where the printing process lives
     GPU memory used/free/total (MiB): 32653 / 32315 / 64969
------------------
     ethr =  1.00E-08,  avg # of iterations =  5.0

     negative rho (up, down):  4.003E-02 0.000E+00

     total cpu time spent up to now is      135.3 secs

     total energy              =   -9095.86924262 Ry
     estimated scf accuracy    <       0.00007291 Ry
[tb_dev] Currently allocated     2.41E+01 Mbytes, locked:    0 /   6
[tb_pin] Currently allocated     0.00E+00 Mbytes, locked:    0 /   0

     iteration # 23     ecut=    90.00 Ry     beta= 0.20
     Davidson diagonalization with overlap

---- Real-time Memory Report at c_bands before calling an iterative solver
         10692 MiB given to the printing process from OS
         -1893 MiB allocation reported by mallinfo(arena+hblkhd)
        463888 MiB available memory on the node where the printing process lives
     GPU memory used/free/total (MiB): 32653 / 32315 / 64969
------------------
     ethr =  5.24E-09,  avg # of iterations =  2.0

     negative rho (up, down):  4.007E-02 0.000E+00

     total cpu time spent up to now is      138.8 secs

     total energy              =   -9095.86924072 Ry
     estimated scf accuracy    <       0.00005466 Ry
[tb_dev] Currently allocated     2.41E+01 Mbytes, locked:    0 /   6
[tb_pin] Currently allocated     0.00E+00 Mbytes, locked:    0 /   0

     iteration # 24     ecut=    90.00 Ry     beta= 0.20
     Davidson diagonalization with overlap

---- Real-time Memory Report at c_bands before calling an iterative solver
         10692 MiB given to the printing process from OS
         -1893 MiB allocation reported by mallinfo(arena+hblkhd)
        463888 MiB available memory on the node where the printing process lives
     GPU memory used/free/total (MiB): 32653 / 32315 / 64969
------------------
     ethr =  3.93E-09,  avg # of iterations =  5.0

     negative rho (up, down):  4.010E-02 0.000E+00

     total cpu time spent up to now is      142.5 secs

     total energy              =   -9095.86924535 Ry
     estimated scf accuracy    <       0.00000749 Ry
[tb_dev] Currently allocated     2.41E+01 Mbytes, locked:    0 /   6
[tb_pin] Currently allocated     0.00E+00 Mbytes, locked:    0 /   0

     iteration # 25     ecut=    90.00 Ry     beta= 0.20
     Davidson diagonalization with overlap

---- Real-time Memory Report at c_bands before calling an iterative solver
         10692 MiB given to the printing process from OS
         -1893 MiB allocation reported by mallinfo(arena+hblkhd)
        463888 MiB available memory on the node where the printing process lives
     GPU memory used/free/total (MiB): 32653 / 32315 / 64969
------------------
     ethr =  5.38E-10,  avg # of iterations =  4.0

     negative rho (up, down):  4.012E-02 0.000E+00

     total cpu time spent up to now is      146.4 secs

     total energy              =   -9095.86924683 Ry
     estimated scf accuracy    <       0.00000234 Ry
[tb_dev] Currently allocated     2.41E+01 Mbytes, locked:    0 /   6
[tb_pin] Currently allocated     0.00E+00 Mbytes, locked:    0 /   0

     iteration # 26     ecut=    90.00 Ry     beta= 0.20
     Davidson diagonalization with overlap

---- Real-time Memory Report at c_bands before calling an iterative solver
         10692 MiB given to the printing process from OS
         -1893 MiB allocation reported by mallinfo(arena+hblkhd)
        463889 MiB available memory on the node where the printing process lives
     GPU memory used/free/total (MiB): 32653 / 32315 / 64969
------------------
     ethr =  1.68E-10,  avg # of iterations =  2.0

     negative rho (up, down):  4.014E-02 0.000E+00

     total cpu time spent up to now is      150.1 secs

     total energy              =   -9095.86924707 Ry
     estimated scf accuracy    <       0.00000122 Ry
[tb_dev] Currently allocated     2.41E+01 Mbytes, locked:    0 /   6
[tb_pin] Currently allocated     0.00E+00 Mbytes, locked:    0 /   0

     iteration # 27     ecut=    90.00 Ry     beta= 0.20
     Davidson diagonalization with overlap

---- Real-time Memory Report at c_bands before calling an iterative solver
         10692 MiB given to the printing process from OS
         -1893 MiB allocation reported by mallinfo(arena+hblkhd)
        463885 MiB available memory on the node where the printing process lives
     GPU memory used/free/total (MiB): 32653 / 32315 / 64969
------------------
     ethr =  8.75E-11,  avg # of iterations =  4.0

     negative rho (up, down):  4.015E-02 0.000E+00

     total cpu time spent up to now is      153.9 secs

     total energy              =   -9095.86924723 Ry
     estimated scf accuracy    <       0.00000061 Ry
[tb_dev] Currently allocated     2.41E+01 Mbytes, locked:    0 /   6
[tb_pin] Currently allocated     0.00E+00 Mbytes, locked:    0 /   0

     iteration # 28     ecut=    90.00 Ry     beta= 0.20
     Davidson diagonalization with overlap

---- Real-time Memory Report at c_bands before calling an iterative solver
         10692 MiB given to the printing process from OS
         -1893 MiB allocation reported by mallinfo(arena+hblkhd)
        463877 MiB available memory on the node where the printing process lives
     GPU memory used/free/total (MiB): 32653 / 32315 / 64969
------------------
     ethr =  4.35E-11,  avg # of iterations =  4.0

     negative rho (up, down):  4.016E-02 0.000E+00

     total cpu time spent up to now is      157.8 secs

     total energy              =   -9095.86924737 Ry
     estimated scf accuracy    <       0.00000023 Ry
[tb_dev] Currently allocated     2.41E+01 Mbytes, locked:    0 /   6
[tb_pin] Currently allocated     0.00E+00 Mbytes, locked:    0 /   0

     iteration # 29     ecut=    90.00 Ry     beta= 0.20
     Davidson diagonalization with overlap

---- Real-time Memory Report at c_bands before calling an iterative solver
         10692 MiB given to the printing process from OS
         -1893 MiB allocation reported by mallinfo(arena+hblkhd)
        463877 MiB available memory on the node where the printing process lives
     GPU memory used/free/total (MiB): 32653 / 32315 / 64969
------------------
     ethr =  1.64E-11,  avg # of iterations =  2.0

     negative rho (up, down):  4.019E-02 0.000E+00

     total cpu time spent up to now is      161.1 secs

[...]
     atom  143 type  1   force =     0.00000495    0.00001784   -0.00003657
     atom  144 type  1   force =     0.00000283   -0.00000028   -0.00000204
     atom  145 type  1   force =     0.00000417    0.00000014   -0.00000186
     atom  146 type  1   force =     0.00001213   -0.00000421    0.00000197
     atom  147 type  1   force =    -0.00001035    0.00000358   -0.00001562
     atom  148 type  1   force =    -0.00000783    0.00000952   -0.00002824
     atom  149 type  1   force =     0.00000190    0.00000438   -0.00002769
     atom  150 type  4   force =    -0.00000944    0.00000001   -0.00003566
     atom  151 type  2   force =    -0.00000639   -0.00000517   -0.00001194
     atom  152 type  2   force =     0.00000554   -0.00000287   -0.00000946
     atom  153 type  2   force =    -0.00000132    0.00000387   -0.00001071
     atom  154 type  2   force =    -0.00000403    0.00000235   -0.00000679
     atom  155 type  2   force =    -0.00000573   -0.00000368   -0.00000522
     atom  156 type  2   force =     0.00000652   -0.00000110   -0.00000420
     atom  157 type  2   force =    -0.00000574    0.00000323   -0.00000471
     atom  158 type  2   force =     0.00000408   -0.00000707   -0.00000771
     atom  159 type  2   force =    -0.00000286    0.00000540   -0.00000162
     atom  160 type  2   force =    -0.00000893    0.00000387   -0.00001489
     atom  161 type  2   force =    -0.00000053   -0.00001302   -0.00001200
     atom  162 type  2   force =     0.00000819    0.00000381   -0.00001358
     atom  163 type  2   force =    -0.00000346   -0.00000218   -0.00000155
     atom  164 type  2   force =     0.00000250   -0.00000394   -0.00000158
     atom  165 type  3   force =    -0.00002792    0.00001064   -0.00003823
     atom  166 type  3   force =    -0.00000054    0.00003215   -0.00000519
     atom  167 type  1   force =     0.00003003    0.00000217   -0.00000482
     atom  168 type  1   force =    -0.00000848    0.00000722   -0.00002885
     atom  169 type  1   force =    -0.00002368    0.00001340   -0.00001490
     atom  170 type  1   force =     0.00002627   -0.00002476   -0.00001604
     atom  171 type  1   force =     0.00001338    0.00002906   -0.00001414
     atom  172 type  1   force =    -0.00001745   -0.00004029   -0.00000244
     atom  173 type  1   force =    -0.00001207    0.00001761   -0.00001105
     atom  174 type  1   force =     0.00000764    0.00000674    0.00003725
     atom  175 type  4   force =    -0.00001247    0.00000383   -0.00000640
     atom  176 type  2   force =    -0.00000789   -0.00000624    0.00000202
     atom  177 type  2   force =     0.00001735   -0.00000257   -0.00000202
     atom  178 type  2   force =    -0.00000295    0.00000121    0.00000196
     atom  179 type  2   force =    -0.00000407    0.00000042   -0.00000483
     atom  180 type  2   force =     0.00000030   -0.00000439    0.00000474
     atom  181 type  2   force =     0.00000993   -0.00000302    0.00000040
     atom  182 type  2   force =    -0.00001087   -0.00000599   -0.00000202
     atom  183 type  2   force =    -0.00000034   -0.00001280   -0.00000637
     atom  184 type  2   force =     0.00000578    0.00000594   -0.00000912
     atom  185 type  2   force =    -0.00001028    0.00000998   -0.00000543
     atom  186 type  2   force =    -0.00000261    0.00000075    0.00000136
     atom  187 type  2   force =     0.00000296   -0.00000196   -0.00000869
     atom  188 type  2   force =    -0.00000068   -0.00000427    0.00000148
     atom  189 type  2   force =     0.00000238   -0.00000415   -0.00001583
     atom  190 type  3   force =     0.00001441   -0.00003104   -0.00000924
     atom  191 type  3   force =     0.00000594    0.00003836    0.00000514
     atom  192 type  1   force =     0.00002037   -0.00001308   -0.00001930
     atom  193 type  1   force =     0.00000871   -0.00002111   -0.00006648
     atom  194 type  1   force =    -0.00007924   -0.00000226   -0.00002869
     atom  195 type  1   force =     0.00004019   -0.00005998   -0.00002147
     atom  196 type  1   force =     0.00003751    0.00006188   -0.00001884
     atom  197 type  1   force =    -0.00002244   -0.00004677   -0.00001003
     atom  198 type  1   force =    -0.00001605    0.00003897    0.00000878
     atom  199 type  1   force =    -0.00001548    0.00001898    0.00004991
     atom  200 type  4   force =     0.00000265   -0.00000768   -0.00002012
     atom  201 type  2   force =     0.00000045   -0.00000357   -0.00000810
     atom  202 type  2   force =     0.00000877    0.00000243   -0.00001264
     atom  203 type  2   force =    -0.00000088    0.00000780   -0.00001509
     atom  204 type  2   force =     0.00000455    0.00000947   -0.00000389
     atom  205 type  2   force =    -0.00000512    0.00000229    0.00000605
     atom  206 type  2   force =     0.00000284   -0.00000396    0.00000152
     atom  207 type  2   force =    -0.00000646    0.00000022   -0.00000428
     atom  208 type  2   force =     0.00000698   -0.00000048   -0.00000492
     atom  209 type  2   force =     0.00000460    0.00001009   -0.00000275
     atom  210 type  2   force =    -0.00000238    0.00000700   -0.00001106
     atom  211 type  2   force =    -0.00000419   -0.00001678   -0.00001466
     atom  212 type  2   force =     0.00000829    0.00000690   -0.00000712
     atom  213 type  2   force =    -0.00000438   -0.00000167   -0.00000079
     atom  214 type  2   force =     0.00000121    0.00000094   -0.00000020
     atom  215 type  3   force =     0.00001279   -0.00001533   -0.00001547
     atom  216 type  3   force =    -0.00000722    0.00001218   -0.00002230
     atom  217 type  1   force =     0.00002513    0.00000202    0.00000554
     atom  218 type  1   force =     0.00000605    0.00000531   -0.00002599
     atom  219 type  1   force =    -0.00002357   -0.00000551   -0.00000656
     atom  220 type  1   force =    -0.00000591   -0.00001372   -0.00001509
     atom  221 type  1   force =     0.00000185    0.00001388   -0.00000849
     atom  222 type  1   force =    -0.00000730   -0.00002843   -0.00000004
     atom  223 type  1   force =    -0.00001822    0.00003755    0.00000371
     atom  224 type  1   force =    -0.00000905    0.00000354    0.00003225
     atom  225 type  4   force =    -0.00001004   -0.00000473   -0.00001324
     atom  226 type  2   force =     0.00000641   -0.00000102   -0.00000104
     atom  227 type  2   force =    -0.00000115   -0.00000133    0.00000730
     atom  228 type  2   force =    -0.00000541    0.00001093    0.00000373
     atom  229 type  2   force =     0.00000030   -0.00000033    0.00000224
     atom  230 type  2   force =    -0.00000533   -0.00000272   -0.00000261
     atom  231 type  2   force =     0.00000140   -0.00000734    0.00000135
     atom  232 type  2   force =    -0.00000906    0.00000802   -0.00000860
     atom  233 type  2   force =     0.00000943   -0.00000333   -0.00000275
     atom  234 type  2   force =     0.00001054    0.00001265   -0.00000627
     atom  235 type  2   force =    -0.00000212    0.00000010   -0.00001841
     atom  236 type  2   force =    -0.00000688   -0.00002383   -0.00001878
     atom  237 type  2   force =     0.00001559    0.00000885   -0.00000737
     atom  238 type  2   force =     0.00000649    0.00000278    0.00000111
     atom  239 type  2   force =     0.00000025    0.00000459   -0.00000603
     atom  240 type  3   force =    -0.00001383    0.00002940    0.00000206
     atom  241 type  3   force =     0.00003768    0.00000149    0.00002084
     atom  242 type  1   force =     0.00000858    0.00000448   -0.00002113
     atom  243 type  1   force =     0.00000078    0.00001363   -0.00004280
     atom  244 type  1   force =    -0.00002458    0.00001130   -0.00001444
     atom  245 type  1   force =     0.00001141   -0.00000229   -0.00002173
     atom  246 type  1   force =     0.00001979    0.00001507   -0.00000996
     atom  247 type  1   force =    -0.00001681   -0.00000966   -0.00001840
     atom  248 type  1   force =    -0.00000043    0.00000575   -0.00002210
     atom  249 type  1   force =     0.00001109    0.00001175   -0.00000693
     atom  250 type  4   force =     0.00000641    0.00001595   -0.00004125
     atom  251 type  2   force =    -0.00000141   -0.00000390   -0.00000826
     atom  252 type  2   force =     0.00001025    0.00000096   -0.00001289
     atom  253 type  2   force =     0.00000138    0.00000601   -0.00001294
     atom  254 type  2   force =     0.00000080    0.00000136   -0.00000571
     atom  255 type  2   force =     0.00000197   -0.00000570   -0.00000503
     atom  256 type  2   force =     0.00000612   -0.00000332   -0.00000942
     atom  257 type  2   force =    -0.00000468   -0.00000391   -0.00000481
     atom  258 type  2   force =     0.00000486   -0.00000255   -0.00000890
     atom  259 type  2   force =     0.00000655    0.00001066   -0.00000572
     atom  260 type  2   force =    -0.00000878    0.00000654   -0.00001141
     atom  261 type  2   force =     0.00000029   -0.00001222   -0.00000960
     atom  262 type  2   force =     0.00000372    0.00000870   -0.00000567
     atom  263 type  2   force =    -0.00000141   -0.00000068   -0.00000018
     atom  264 type  2   force =    -0.00000157   -0.00000181    0.00000457
     atom  265 type  3   force =    -0.00003368   -0.00005206    0.00005213
     atom  266 type  3   force =    -0.00000286   -0.00001194   -0.00001287
     atom  267 type  1   force =     0.00005500   -0.00001063    0.00001707
     atom  268 type  1   force =     0.00000021    0.00000109   -0.00006205
     atom  269 type  1   force =    -0.00004937   -0.00001034   -0.00002529
     atom  270 type  1   force =     0.00000933   -0.00004578   -0.00002006
     atom  271 type  1   force =     0.00002114    0.00003588   -0.00002388
     atom  272 type  1   force =    -0.00001587   -0.00004548    0.00001870
     atom  273 type  1   force =    -0.00003083    0.00004396    0.00002232
     atom  274 type  1   force =    -0.00000172   -0.00000430    0.00005577
     atom  275 type  4   force =     0.00000698   -0.00000043   -0.00001659
     atom  276 type  2   force =     0.00000111   -0.00000572    0.00001017
     atom  277 type  2   force =     0.00000414   -0.00000059    0.00000179
     atom  278 type  2   force =     0.00000152    0.00000147    0.00000455
     atom  279 type  2   force =    -0.00000024    0.00000739    0.00000628
     atom  280 type  2   force =    -0.00000716   -0.00000172    0.00000012
     atom  281 type  2   force =     0.00000270   -0.00000251    0.00000169
     atom  282 type  2   force =    -0.00000651   -0.00000198   -0.00000481
     atom  283 type  2   force =     0.00000295   -0.00000625   -0.00001178
     atom  284 type  2   force =     0.00000805    0.00000092   -0.00000410
     atom  285 type  2   force =    -0.00001057    0.00001197   -0.00001130
     atom  286 type  2   force =     0.00000143   -0.00001506   -0.00001027
     atom  287 type  2   force =     0.00002001    0.00000341   -0.00001107
     atom  288 type  2   force =     0.00000610   -0.00000360    0.00000154
     atom  289 type  2   force =     0.00000048   -0.00000439   -0.00001468
     atom  290 type  3   force =     0.00001711   -0.00000035   -0.00001488
     atom  291 type  3   force =    -0.00002244    0.00000830    0.00000871
     atom  292 type  1   force =     0.00003858   -0.00000374   -0.00002210
     atom  293 type  1   force =     0.00001285    0.00000235   -0.00008413
     atom  294 type  1   force =    -0.00002942    0.00000700   -0.00000797
     atom  295 type  1   force =     0.00003471   -0.00003685   -0.00001419
     atom  296 type  1   force =     0.00002604    0.00001753   -0.00002221
     atom  297 type  1   force =    -0.00002315   -0.00003165   -0.00001424
     atom  298 type  1   force =    -0.00001191    0.00003255   -0.00001452
     atom  299 type  1   force =    -0.00000357   -0.00001367    0.00000198
     atom  300 type  4   force =     0.00001504   -0.00000989   -0.00004626

     Total force =     0.974788     Total SCF correction =     0.000475


     Computing stress (Cartesian axis) and pressure


     negative rho (up, down):  4.019E-02 0.000E+00
          total   stress  (Ry/bohr**3)                   (kbar)     P=        1.10
   0.00002032  -0.00000799   0.00000276            2.99       -1.18        0.41
  -0.00000799   0.00004303  -0.00000255           -1.18        6.33       -0.38
   0.00000276  -0.00000255  -0.00004086            0.41       -0.38       -6.01

     kinetic stress (kbar)   5330.12     -1.75      1.88
                               -1.75   5331.23     -0.94
                                1.88     -0.94   5320.81

     local   stress (kbar)-645335.13    -48.67     77.60
                              -48.67-645447.46   -162.25
                               77.60   -162.25 639002.45

     nonloc. stress (kbar)    957.48      0.02      0.26
                                0.02    957.90     -0.59
                                0.26     -0.59    954.19

     hartree stress (kbar) 323323.10     18.96    -24.96
                               18.96 323352.98     67.54
                              -24.96     67.54-317470.75

     exc-cor stress (kbar)  -1263.54      0.06     -0.15
                                0.06  -1263.19      0.09
                               -0.15      0.09  -1265.16

     corecor stress (kbar)   -292.81      0.01     -0.00
                                0.01   -292.85      0.01
                               -0.00      0.01   -292.72

     ewald   stress (kbar) 317283.76     30.20    -54.22
                               30.20 317367.73     95.77
                              -54.22     95.77-326254.82

     hubbard stress (kbar)      0.00      0.00      0.00
                                0.00      0.00      0.00
                                0.00      0.00      0.00

     DFT-D   stress (kbar)      0.00      0.00      0.00
                                0.00      0.00      0.00
                                0.00      0.00      0.00

     XDM     stress (kbar)      0.00      0.00      0.00
                                0.00      0.00      0.00
                                0.00      0.00      0.00

     dft-nl  stress (kbar)      0.00      0.00      0.00
                                0.00      0.00      0.00
                                0.00      0.00      0.00

     TS-vdW  stress (kbar)      0.00      0.00      0.00
                                0.00      0.00      0.00
                                0.00      0.00      0.00

     MDB     stress (kbar)      0.00      0.00      0.00
                                0.00      0.00      0.00
                                0.00      0.00      0.00

     3D-RISM stress (kbar)      0.00      0.00      0.00
                                0.00      0.00      0.00
                                0.00      0.00      0.00


     Writing all to output data dir ./tmp/pwscf.save/
 
     init_run     :     29.42s CPU     34.17s WALL (       1 calls)
     electrons    :    119.70s CPU    126.65s WALL (       1 calls)
     forces       :      3.12s CPU      3.32s WALL (       1 calls)
     stress       :     81.06s CPU     83.99s WALL (       1 calls)

     Called by init_run:
     wfcinit      :      3.48s CPU      5.37s WALL (       1 calls)
                                        5.37s GPU  (       1 calls)
     wfcinit:atom :      0.01s CPU      0.01s WALL (       1 calls)
                                        0.01s GPU  (       1 calls)
     wfcinit:wfcr :      1.24s CPU      2.38s WALL (       1 calls)
                                        2.38s GPU  (       1 calls)
     potinit      :     16.40s CPU     16.67s WALL (       1 calls)
     hinit0       :      7.20s CPU      7.44s WALL (       1 calls)

     Called by electrons:
     c_bands      :     78.27s CPU     80.12s WALL (      29 calls)
     sum_band     :     15.93s CPU     16.36s WALL (      29 calls)
     v_of_rho     :      3.21s CPU      3.37s WALL (      30 calls)
     v_h          :      1.75s CPU      1.84s WALL (      30 calls)
     v_xc         :      1.60s CPU      1.67s WALL (      32 calls)
     newd         :      2.37s CPU      4.58s WALL (      30 calls)
                                        4.58s GPU  (      30 calls)
     PAW_pot      :      3.26s CPU      3.30s WALL (      30 calls)
     mix_rho      :      8.01s CPU      8.25s WALL (      29 calls)

     Called by c_bands:
     init_us_2    :      0.45s CPU      0.62s WALL (      59 calls)
     init_us_2:gp :      0.45s CPU      0.62s WALL (      59 calls)
     regterg      :     68.93s CPU     70.56s WALL (      33 calls)

     Called by sum_band:
     sum_band:wei :      0.01s CPU      0.01s WALL (      29 calls)
                                        0.01s GPU  (      29 calls)
     sum_band:loo :     12.55s CPU     12.88s WALL (      29 calls)
                                       12.88s GPU  (      29 calls)
     sum_band:buf :      1.88s CPU      1.90s WALL (      29 calls)
                                        1.89s GPU  (      29 calls)
     sum_band:ini :      0.23s CPU      0.45s WALL (      29 calls)
                                        0.45s GPU  (      29 calls)
     sum_band:cal :      2.12s CPU      2.19s WALL (      29 calls)
                                        2.19s GPU  (      29 calls)
     sum_band:bec :      0.20s CPU      0.20s WALL (      29 calls)
                                        0.20s GPU  (      29 calls)
     addusdens    :      2.05s CPU      2.14s WALL (      29 calls)
                                        2.14s GPU  (      29 calls)
     addusd:skk   :      0.44s CPU      0.44s WALL (     116 calls)
                                        0.44s GPU  (     116 calls)

     Called by *egterg:
     rdiaghg      :      6.92s CPU      7.00s WALL (     282 calls)
                                        7.00s GPU  (     282 calls)
     regterg:over :      4.29s CPU      4.37s WALL (     249 calls)
     regterg:upda :      2.34s CPU      2.37s WALL (     249 calls)
     regterg:last :      4.71s CPU      4.73s WALL (      73 calls)
     h_psi        :     43.56s CPU     45.83s WALL (     283 calls)
                                       45.83s GPU  (     283 calls)
     s_psi        :      1.18s CPU      5.54s WALL (     283 calls)
                                        5.37s GPU  (     283 calls)
     g_psi        :      0.00s CPU      0.22s WALL (     249 calls)
                                        0.22s GPU  (     249 calls)

     Called by h_psi:
     h_psi:calbec :      6.38s CPU      6.63s WALL (     283 calls)
                                        6.63s GPU  (     283 calls)
     vloc_psi     :     32.13s CPU     33.53s WALL (     283 calls)
                                       33.53s GPU  (     283 calls)
     add_vuspsi   :      0.53s CPU      5.44s WALL (     283 calls)
                                        5.43s GPU  (     283 calls)

     General routines
     calbec       :      8.90s CPU      9.35s WALL (     317 calls)
     fft          :      5.64s CPU      7.55s WALL (     348 calls)
                                        0.75s GPU  (     318 calls)
     ffts         :      2.91s CPU      3.46s WALL (      59 calls)
                                        0.05s GPU  (      29 calls)
     fftw         :     19.08s CPU     32.13s WALL (   16884 calls)
                                       31.94s GPU  (   16884 calls)
     interpolate  :      9.14s CPU     11.43s WALL (      30 calls)
 
     Parallel routines

     PAW routines
     PAW_pot      :      3.26s CPU      3.30s WALL (      30 calls)
 
     PWSCF        :   3m55.69s CPU   4m15.65s WALL

 
   This run was terminated on:  13:51:47  30Dec2023            

=------------------------------------------------------------------------------=
   JOB DONE.
=------------------------------------------------------------------------------=
