
     Program PWSCF v.7.2 starts on 30Dec2023 at 14:25:28 

     This program is part of the open-source Quantum ESPRESSO suite
     for quantum simulation of materials; please cite
         "P. Giannozzi et al., J. Phys.:Condens. Matter 21 395502 (2009);
         "P. Giannozzi et al., J. Phys.:Condens. Matter 29 465901 (2017);
         "P. Giannozzi et al., J. Chem. Phys. 152 154105 (2020);
          URL http://www.quantum-espresso.org", 
     in publications or presentations arising from this work. More details at
     http://www.quantum-espresso.org/quote

     Parallel version (MPI & OpenMP), running on       4 processor cores
     Number of MPI processes:                 4
     Threads/MPI process:                     1

     MPI processes distributed on     1 nodes
     503988 MiB available memory on the printing compute node when the environment starts
 
     Reading input from input_0015.inp

     Current dimensions of program PWSCF are:
     Max number of different atomic species (ntypx) = 10
     Max number of k-points (npk) =  40000
     Max angular momentum in pseudopotentials (lmaxx) =  4
     file O.pbe-n-kjpaw_psl.0.1.UPF: wavefunction(s)  2P renormalized

     gamma-point specific algorithms are used
 
     R & G space division:  proc/nbgrp/npool/nimage =       4
     Subspace diagonalization in iterative solution of the eigenvalue problem:
     a serial algorithm will be used

 
     Parallelization info
     --------------------
     sticks:   dense  smooth     PW     G-vecs:    dense   smooth      PW
     Min        6485    4324   1079              2728975  1485363  185656
     Max        6486    4326   1080              2728990  1485382  185664
     Sum       25943   17301   4319             10915929  5941483  742635
 
     Using Slab Decomposition
 


     bravais-lattice index     =            0
     lattice parameter (alat)  =      32.3352  a.u.
     unit-cell volume          =   51510.8153 (a.u.)^3
     number of atoms/cell      =          300
     number of atomic types    =            4
     number of electrons       =      1392.00
     number of Kohn-Sham states=          835
     kinetic-energy cutoff     =      90.0000  Ry
     charge density cutoff     =     540.0000  Ry
     scf convergence threshold =      1.0E-07
     mixing beta               =       0.2000
     number of iterations used =            8  plain     mixing
     Exchange-correlation= SLA  PW   PBX  PBC
                           (   1   4   3   4   0   0   0)

     GPU acceleration is ACTIVE.
     GPU-aware MPI enabled


     GPU used by master process:

        Device Number: 0
        Device name: NVIDIA PG506-243
        Compute capability : 80
        Ratio of single to double precision performance  : 2
        Memory Clock Rate (KHz): 1593000
        Memory Bus Width (bits): 4096
        Peak Memory Bandwidth (GB/s): ******

     celldm(1)=  32.335181  celldm(2)=   0.000000  celldm(3)=   0.000000
     celldm(4)=   0.000000  celldm(5)=   0.000000  celldm(6)=   0.000000

     crystal axes: (cart. coord. in units of alat)
               a(1) = (   1.000000   0.000000   0.000000 )  
               a(2) = (  -0.333333   0.577350   0.000000 )  
               a(3) = (   0.000000  -0.000000   2.638962 )  

     reciprocal axes: (cart. coord. in units 2 pi/alat)
               b(1) = (  1.000000  0.577350  0.000000 )  
               b(2) = ( -0.000000  1.732051  0.000000 )  
               b(3) = (  0.000000 -0.000000  0.378937 )  


     PseudoPot. # 1 for N  read from file:
     /leonardo_scratch/large/userexternal/uraucci0/Li_Cr/PPS/N.pbe-n-radius_5.UPF
     MD5 check sum: 16739722b17309cd8fe442a2ace49922
     Pseudo is Ultrasoft + core correction, Zval =  5.0
     Generated using "atomic" code by A. Dal Corso  v.5.1
     Using radial grid of 1085 points,  4 beta functions with: 
                l(1) =   0
                l(2) =   0
                l(3) =   1
                l(4) =   1
     Q(r) pseudized with 0 coefficients 


     PseudoPot. # 2 for Li read from file:
     /leonardo_scratch/large/userexternal/uraucci0/Li_Cr/PPS/li_pbe_v1.4.uspp.F.UPF
     MD5 check sum: e912e257baa3777c20ea3d68f190483c
     Pseudo is Ultrasoft, Zval =  3.0
     Generated by new atomic code, or converted to UPF format
     Using radial grid of  751 points,  5 beta functions with: 
                l(1) =   0
                l(2) =   0
                l(3) =   0
                l(4) =   1
                l(5) =   1
     Q(r) pseudized with 10 coefficients,  rinner =    1.150   1.150   1.150


     PseudoPot. # 3 for Cr read from file:
     /leonardo_scratch/large/userexternal/uraucci0/Li_Cr/PPS/cr_pbe_v1.5.uspp.F.UPF
     MD5 check sum: 0d52af634a40206e4dee301ad30da4bf
     Pseudo is Ultrasoft + core correction, Zval = 14.0
     Generated by new atomic code, or converted to UPF format
     Using radial grid of  857 points,  6 beta functions with: 
                l(1) =   0
                l(2) =   0
                l(3) =   1
                l(4) =   1
                l(5) =   2
                l(6) =   2
     Q(r) pseudized with  8 coefficients,  rinner =    0.950   0.950   0.950
                                                       0.950   0.950

     PseudoPot. # 4 for O  read from file:
     /leonardo_scratch/large/userexternal/uraucci0/Li_Cr/PPS/O.pbe-n-kjpaw_psl.0.1.UPF
     MD5 check sum: 0234752ac141de4415c5fc33072bef88
     Pseudo is Projector augmented-wave + core cor, Zval =  6.0
     Generated using "atomic" code by A. Dal Corso  v.5.0.99 svn rev. 10869
     Shape of augmentation charge: BESSEL
     Using radial grid of 1095 points,  4 beta functions with: 
                l(1) =   0
                l(2) =   0
                l(3) =   1
                l(4) =   1
     Q(r) pseudized with 0 coefficients 


     atomic species   valence    mass     pseudopotential
        N              5.00    14.00674     N ( 1.00)
        Li             3.00     6.94100     Li( 1.00)
        Cr            14.00    51.99610     Cr( 1.00)
        O              6.00    15.99940     O ( 1.00)

     No symmetry found


                                    s                        frac. trans.

      isym =  1     identity                                     

 cryst.   s( 1) = (     1          0          0      )
                  (     0          1          0      )
                  (     0          0          1      )

 cart.    s( 1) = (  1.0000000  0.0000000  0.0000000 )
                  (  0.0000000  1.0000000  0.0000000 )
                  (  0.0000000  0.0000000  1.0000000 )


   Cartesian axes

     site n.     atom                  positions (alat units)
         1           Li  tau(   1) = (   0.2593273   0.0873080   0.8766270  )
         2           Li  tau(   2) = (   0.1280588   0.1809300   0.8766270  )
         3           Li  tau(   3) = (   0.1126144   0.0204373   0.8766270  )
         4           Li  tau(   4) = (  -0.0955371   0.1940016   1.2653876  )
         5           Li  tau(   5) = (   0.0530826   0.0927097   1.2782390  )
         6           Li  tau(   6) = (   0.0460436   0.2649418   1.2765676  )
         7           Li  tau(   7) = (   0.0669942   0.0904568   1.0336250  )
         8           Li  tau(   8) = (   0.2214985   0.0127904   1.0336250  )
         9           Li  tau(   9) = (   0.2115073   0.1854282   1.0336250  )
        10           Li  tau(  10) = (   0.1112451   0.2072247   1.1186578  )
        11           Li  tau(  11) = (  -0.0566981   0.2804563   1.1263838  )
        12           Li  tau(  12) = (  -0.0569269   0.0973979   1.1278624  )
        13           Li  tau(  13) = (   0.0000000   0.0000000   0.9626942  )
        14           Li  tau(  14) = (   0.0074775   0.0186134   1.1908393  )
        15           Cr  tau(  15) = (   0.1727744   0.0991635   1.2015926  )
        16           Cr  tau(  16) = (  -0.0000000   0.1924500   0.9478909  )
        17           N   tau(  17) = (   0.2697773   0.0823708   1.2325609  )
        18           N   tau(  18) = (   0.1556638   0.1017150   1.1003772  )
        19           N   tau(  19) = (  -0.0969339   0.1982778   0.9168466  )
        20           N   tau(  20) = (   0.0434200   0.1055885   0.9168466  )
        21           N   tau(  21) = (   0.0535141   0.2734837   0.9168466  )
        22           N   tau(  22) = (   0.1162781   0.0162418   1.2378265  )
        23           N   tau(  23) = (   0.1498401   0.1858706   1.2352843  )
        24           N   tau(  24) = (  -0.0000000   0.1924500   1.0497374  )
        25           O   tau(  25) = (   0.0059351   0.0019611   1.0763986  )
        26           Li  tau(  26) = (   0.2706767   0.0917314   1.3723361  )
        27           Li  tau(  27) = (   0.1409336   0.1638731   1.3584387  )
        28           Li  tau(  28) = (   0.1207630   0.0218292   1.3520919  )
        29           Li  tau(  29) = (  -0.1090162   0.1999884   1.7563104  )
        30           Li  tau(  30) = (   0.0376546   0.1059784   1.7670170  )
        31           Li  tau(  31) = (   0.0546527   0.2903979   1.7633702  )
        32           Li  tau(  32) = (   0.0744274   0.0902610   1.5185750  )
        33           Li  tau(  33) = (   0.2083999   0.0330691   1.5171666  )
        34           Li  tau(  34) = (   0.2090814   0.2190586   1.5168510  )
        35           Li  tau(  35) = (   0.0896456   0.2166519   1.5915630  )
        36           Li  tau(  36) = (  -0.0747406   0.2878183   1.6044903  )
        37           Li  tau(  37) = (  -0.0312449   0.1113486   1.6073072  )
        38           Li  tau(  38) = (  -0.3224105   0.5825110   1.4560657  )
        39           Li  tau(  39) = (   0.9892560   0.0117293   1.6853913  )
        40           Cr  tau(  40) = (   0.1547767   0.1047067   1.6963141  )
        41           Cr  tau(  41) = (  -0.0074201   0.1872639   1.4407306  )
        42           N   tau(  42) = (   0.2555157   0.1022948   1.7243895  )
        43           N   tau(  43) = (   0.1602556   0.1086456   1.5949702  )
        44           N   tau(  44) = (  -0.1003487   0.1940180   1.4029830  )
        45           N   tau(  45) = (   0.0405580   0.1016215   1.4153610  )
        46           N   tau(  46) = (   0.0449624   0.2742364   1.3918674  )
        47           N   tau(  47) = (   0.1059766   0.0278742   1.7301869  )
        48           N   tau(  48) = (   0.1089308   0.1892170   1.7273584  )
        49           N   tau(  49) = (  -0.0084364   0.2050495   1.5438161  )
        50           O   tau(  50) = (  -0.3292237   0.5743596   1.5645570  )
        51           Li  tau(  51) = (   0.0926606   0.3759836   0.8766270  )
        52           Li  tau(  52) = (  -0.0386079   0.4696050   0.8766270  )
        53           Li  tau(  53) = (  -0.0540524   0.3091127   0.8766270  )
        54           Li  tau(  54) = (  -0.2784646   0.4953386   1.2550318  )
        55           Li  tau(  55) = (  -0.1359771   0.3924548   1.2845273  )
        56           Li  tau(  56) = (  -0.1006450   0.5653011   1.2792676  )
        57           Li  tau(  57) = (  -0.0996725   0.3791318   1.0336250  )
        58           Li  tau(  58) = (   0.0548319   0.3014656   1.0336250  )
        59           Li  tau(  59) = (   0.0448406   0.4741032   1.0336250  )
        60           Li  tau(  60) = (  -0.0687182   0.4915843   1.1232046  )
        61           Li  tau(  61) = (  -0.2096202   0.5649475   1.1093247  )
        62           Li  tau(  62) = (  -0.2241681   0.3900014   1.1110195  )
        63           Li  tau(  63) = (  -0.1666667   0.2886750   0.9626942  )
        64           Li  tau(  64) = (  -0.1780844   0.3028495   1.1943809  )
        65           Cr  tau(  65) = (  -0.0026158   0.3785299   1.2075010  )
        66           Cr  tau(  66) = (  -0.1666667   0.4811250   0.9478909  )
        67           N   tau(  67) = (   0.0926612   0.3714216   1.2342499  )
        68           N   tau(  68) = (   0.0019208   0.3755961   1.1089915  )
        69           N   tau(  69) = (  -0.2636006   0.4869528   0.9168466  )
        70           N   tau(  70) = (  -0.1232467   0.3942641   0.9168466  )
        71           N   tau(  71) = (  -0.1131527   0.5621587   0.9168466  )
        72           N   tau(  72) = (  -0.0640072   0.3053040   1.2399713  )
        73           N   tau(  73) = (  -0.0511981   0.4689434   1.2379492  )
        74           N   tau(  74) = (  -0.1666667   0.4811250   1.0497374  )
        75           O   tau(  75) = (   0.8308203   0.2906854   1.0806765  )
        76           Li  tau(  76) = (   0.0933479   0.3658497   1.3521503  )
        77           Li  tau(  77) = (  -0.0403343   0.4640372   1.3566737  )
        78           Li  tau(  78) = (  -0.0578873   0.3068153   1.3625880  )
        79           Li  tau(  79) = (  -0.2484560   0.4716721   1.7998437  )
        80           Li  tau(  80) = (  -0.1367830   0.3782786   1.7760112  )
        81           Li  tau(  81) = (  -0.1341216   0.5433124   1.7268675  )
        82           Li  tau(  82) = (  -0.1136237   0.3908009   1.5276978  )
        83           Li  tau(  83) = (   0.0342848   0.3177749   1.5053321  )
        84           Li  tau(  84) = (   0.0495246   0.4686313   1.5437401  )
        85           Li  tau(  85) = (  -0.0653087   0.4936210   1.6029241  )
        86           Li  tau(  86) = (  -0.2383163   0.5503517   1.6190832  )
        87           Li  tau(  87) = (  -0.2108966   0.3992691   1.6347690  )
        88           Li  tau(  88) = (  -0.1583708   0.2989444   1.4457157  )
        89           Li  tau(  89) = (   0.8008163   0.2661574   1.6491282  )
        90           Cr  tau(  90) = (  -0.0054102   0.3868011   1.6866186  )
        91           Cr  tau(  91) = (  -0.1779827   0.4851008   1.4351085  )
        92           N   tau(  92) = (   0.0881413   0.3965060   1.7255467  )
        93           N   tau(  93) = (  -0.0020227   0.3798892   1.5778935  )
        94           N   tau(  94) = (  -0.2686038   0.4865174   1.4069454  )
        95           N   tau(  95) = (  -0.1341362   0.3933302   1.4094993  )
        96           N   tau(  96) = (  -0.1148533   0.5668305   1.3949239  )
        97           N   tau(  97) = (  -0.0527092   0.3127361   1.7314668  )
        98           N   tau(  98) = (  -0.0532742   0.4660757   1.7257103  )
        99           N   tau(  99) = (  -0.1735792   0.4977336   1.5415193  )
       100           O   tau( 100) = (   0.8203709   0.3010822   1.5601505  )
       101           Li  tau( 101) = (   0.5926583   0.0873080   0.8766270  )
       102           Li  tau( 102) = (   0.4613921   0.1809300   0.8766270  )
       103           Li  tau( 103) = (   0.4459477   0.0204373   0.8766270  )
       104           Li  tau( 104) = (   0.2527327   0.1911801   1.2875897  )
       105           Li  tau( 105) = (   0.3673862   0.1050591   1.2775844  )
       106           Li  tau( 106) = (   0.3739439   0.2674162   1.2835572  )
       107           Li  tau( 107) = (   0.4003275   0.0904568   1.0336250  )
       108           Li  tau( 108) = (   0.5548318   0.0127904   1.0336250  )
       109           Li  tau( 109) = (   0.5448406   0.1854282   1.0336250  )
       110           Li  tau( 110) = (   0.4243120   0.1991311   1.1300306  )
       111           Li  tau( 111) = (   0.2880982   0.2779743   1.1193416  )
       112           Li  tau( 112) = (   0.3113469   0.1060993   1.1210715  )
       113           Li  tau( 113) = (   0.3333333   0.0000000   0.9626942  )
       114           Li  tau( 114) = (  -0.0029401   0.5728950   1.1983374  )
       115           Cr  tau( 115) = (   0.4986354   0.1001646   1.2019140  )
       116           Cr  tau( 116) = (   0.3333333   0.1924500   0.9478909  )
       117           N   tau( 117) = (   0.5906362   0.0898689   1.2441441  )
       118           N   tau( 118) = (   0.4946186   0.1046646   1.1075831  )
       119           N   tau( 119) = (   0.2363994   0.1982778   0.9168466  )
       120           N   tau( 120) = (   0.3767532   0.1055885   0.9168466  )
       121           N   tau( 121) = (   0.3868473   0.2734837   0.9168466  )
       122           N   tau( 122) = (   0.4428544   0.0165189   1.2364590  )
       123           N   tau( 123) = (   0.4424231   0.1795268   1.2464817  )
       124           N   tau( 124) = (   0.3333333   0.1924500   1.0497374  )
       125           O   tau( 125) = (  -0.0008414   0.5637728   1.0709226  )
       126           Li  tau( 126) = (   0.3066926   0.5628401   1.4513845  )
       127           Li  tau( 127) = (   0.4576630   0.1686554   1.3560718  )
       128           Li  tau( 128) = (   0.5879479   0.0893055   1.3611971  )
       129           Li  tau( 129) = (   0.2230116   0.2002643   1.7724345  )
       130           Li  tau( 130) = (   0.3643151   0.1408178   1.7394441  )
       131           Li  tau( 131) = (   0.3982908   0.2950159   1.7804703  )
       132           Li  tau( 132) = (   0.3916021   0.0948423   1.5212341  )
       133           Li  tau( 133) = (   0.0388741   0.5079434   1.7730832  )
       134           Li  tau( 134) = (   0.5137677   0.1897523   1.5130581  )
       135           Li  tau( 135) = (   0.4391860   0.1947625   1.6081839  )
       136           Li  tau( 136) = (   0.3146319   0.2644912   1.6310872  )
       137           Li  tau( 137) = (   0.2795423   0.1158667   1.6002767  )
       138           Li  tau( 138) = (   0.4340110   0.0246949   1.3610101  )
       139           Li  tau( 139) = (   0.1113977   0.5540551   1.6396431  )
       140           Cr  tau( 140) = (   0.5004389   0.0919640   1.7115206  )
       141           Cr  tau( 141) = (   0.3369468   0.1913577   1.4390533  )
       142           N   tau( 142) = (   0.5946278   0.0700250   1.7590572  )
       143           N   tau( 143) = (   0.4991514   0.0815275   1.6056825  )
       144           N   tau( 144) = (   0.2419426   0.1953335   1.4019661  )
       145           N   tau( 145) = (   0.3798401   0.1068871   1.4065596  )
       146           N   tau( 146) = (   0.3848439   0.2781163   1.3954732  )
       147           N   tau( 147) = (   0.4363113   0.0197044   1.7420273  )
       148           N   tau( 148) = (   0.4639531   0.1831075   1.7360720  )
       149           N   tau( 149) = (   0.3460847   0.1937170   1.5409173  )
       150           O   tau( 150) = (   0.3336366   0.0054437   1.5593733  )
       151           Li  tau( 151) = (   0.4259940   0.3759836   0.8766270  )
       152           Li  tau( 152) = (   0.2947255   0.4696050   0.8766270  )
       153           Li  tau( 153) = (   0.2792811   0.3091127   0.8766270  )
       154           Li  tau( 154) = (   0.0707093   0.4866898   1.2780461  )
       155           Li  tau( 155) = (   0.2042769   0.3857614   1.2707058  )
       156           Li  tau( 156) = (   0.1999013   0.5509805   1.2707409  )
       157           Li  tau( 157) = (   0.2336608   0.3791318   1.0336250  )
       158           Li  tau( 158) = (   0.3881652   0.3014656   1.0336250  )
       159           Li  tau( 159) = (   0.3781739   0.4741032   1.0336250  )
       160           Li  tau( 160) = (   0.2775331   0.5000011   1.1249111  )
       161           Li  tau( 161) = (   0.1095193   0.5646009   1.1092604  )
       162           Li  tau( 162) = (   0.1081150   0.4009066   1.1225267  )
       163           Li  tau( 163) = (   0.1666667   0.2886750   0.9626942  )
       164           Li  tau( 164) = (   0.1840858   0.2903932   1.1819035  )
       165           Cr  tau( 165) = (   0.3393137   0.3914882   1.1979517  )
       166           Cr  tau( 166) = (   0.1666667   0.4811250   0.9478909  )
       167           N   tau( 167) = (   0.4376958   0.3804514   1.2275174  )
       168           N   tau( 168) = (   0.3311219   0.3971927   1.1023117  )
       169           N   tau( 169) = (   0.0697328   0.4869528   0.9168466  )
       170           N   tau( 170) = (   0.2100866   0.3942641   0.9168466  )
       171           N   tau( 171) = (   0.2201806   0.5621587   0.9168466  )
       172           N   tau( 172) = (   0.2882922   0.3081016   1.2304453  )
       173           N   tau( 173) = (   0.2914487   0.4709363   1.2367395  )
       174           N   tau( 174) = (   0.1666667   0.4811250   1.0497374  )
       175           O   tau( 175) = (   0.1718966   0.2880222   1.0717641  )
       176           Li  tau( 176) = (   0.4357461   0.3772231   1.3548562  )
       177           Li  tau( 177) = (   0.2879486   0.4730589   1.3623718  )
       178           Li  tau( 178) = (   0.2629729   0.3050183   1.3581815  )
       179           Li  tau( 179) = (   0.3401622   0.0287325   1.6729315  )
       180           Li  tau( 180) = (   0.1991340   0.4093696   1.7378662  )
       181           Li  tau( 181) = (   0.2107604   0.5507409   1.8040106  )
       182           Li  tau( 182) = (   0.2343838   0.3694568   1.5155945  )
       183           Li  tau( 183) = (   0.3903000   0.3152561   1.5187562  )
       184           Li  tau( 184) = (   0.3769175   0.4967944   1.5248926  )
       185           Li  tau( 185) = (   0.2592151   0.4745608   1.6088209  )
       186           Li  tau( 186) = (  -0.0185584   0.5406445   1.4626346  )
       187           Li  tau( 187) = (   0.1244933   0.3798273   1.6093176  )
       188           Li  tau( 188) = (   0.1450590   0.3027238   1.4370604  )
       189           Li  tau( 189) = (   0.1677794   0.2808199   1.6946952  )
       190           Cr  tau( 190) = (   0.3250568   0.3902112   1.6982368  )
       191           Cr  tau( 191) = (   0.1553880   0.4767997   1.4329227  )
       192           N   tau( 192) = (   0.4226984   0.4069875   1.7221570  )
       193           N   tau( 193) = (   0.3219594   0.3794012   1.6007501  )
       194           N   tau( 194) = (   0.0630943   0.4651330   1.4014285  )
       195           N   tau( 195) = (   0.2121805   0.3956632   1.4085175  )
       196           N   tau( 196) = (   0.2013460   0.5585920   1.3876537  )
       197           N   tau( 197) = (   0.2871526   0.3051299   1.7461591  )
       198           N   tau( 198) = (   0.2829407   0.4773929   1.7376091  )
       199           N   tau( 199) = (   0.1598646   0.4896301   1.5297024  )
       200           O   tau( 200) = (   0.1362611   0.2976154   1.5492921  )
       201           Li  tau( 201) = (   0.9259927   0.0873080   0.8766270  )
       202           Li  tau( 202) = (   0.7947266   0.1809300   0.8766270  )
       203           Li  tau( 203) = (   0.7792805   0.0204373   0.8766270  )
       204           Li  tau( 204) = (   0.5646331   0.1997663   1.2855501  )
       205           Li  tau( 205) = (   0.6992386   0.1117360   1.2701097  )
       206           Li  tau( 206) = (   0.7271913   0.2760937   1.2730903  )
       207           Li  tau( 207) = (   0.7336608   0.0904568   1.0336250  )
       208           Li  tau( 208) = (   0.8881634   0.0127904   1.0336250  )
       209           Li  tau( 209) = (   0.8781757   0.1854282   1.0336250  )
       210           Li  tau( 210) = (   0.7680655   0.2080867   1.1250455  )
       211           Li  tau( 211) = (   0.6178408   0.2744701   1.1084773  )
       212           Li  tau( 212) = (   0.6217331   0.0973494   1.1246306  )
       213           Li  tau( 213) = (   0.6666690   0.0000000   0.9626942  )
       214           Li  tau( 214) = (   0.3325771   0.5693751   1.2076296  )
       215           Cr  tau( 215) = (   0.8290320   0.0969263   1.2070861  )
       216           Cr  tau( 216) = (   0.6666690   0.1924500   0.9478909  )
       217           N   tau( 217) = (   0.9236083   0.0892716   1.2380077  )
       218           N   tau( 218) = (   0.8199267   0.0954325   1.1027207  )
       219           N   tau( 219) = (   0.5697327   0.1982778   0.9168466  )
       220           N   tau( 220) = (   0.7100854   0.1055885   0.9168466  )
       221           N   tau( 221) = (   0.7201783   0.2734837   0.9168466  )
       222           N   tau( 222) = (   0.7782753   0.0170905   1.2426304  )
       223           N   tau( 223) = (   0.7911266   0.1829293   1.2421161  )
       224           N   tau( 224) = (   0.6666690   0.1924500   1.0497374  )
       225           O   tau( 225) = (   0.6685157   0.0051179   1.0771408  )
       226           Li  tau( 226) = (   0.9295402   0.0760310   1.3726751  )
       227           Li  tau( 227) = (   0.7936104   0.1819620   1.3686543  )
       228           Li  tau( 228) = (   0.7920500   0.0237878   1.3694608  )
       229           Li  tau( 229) = (   0.5659486   0.2097803   1.7957528  )
       230           Li  tau( 230) = (   0.6941132   0.0950556   1.7687936  )
       231           Li  tau( 231) = (   0.7140302   0.2754321   1.7734865  )
       232           Li  tau( 232) = (   0.7201023   0.0718144   1.5058406  )
       233           Li  tau( 233) = (   0.8935751   0.0321352   1.5136016  )
       234           Li  tau( 234) = (   0.8689068   0.1825920   1.5307660  )
       235           Li  tau( 235) = (   0.7372550   0.1551758   1.6328697  )
       236           Li  tau( 236) = (   0.6049603   0.2629998   1.6059046  )
       237           Li  tau( 237) = (   0.6037096   0.1072027   1.6085754  )
       238           Li  tau( 238) = (   0.5302611   0.0261334   1.5135783  )
       239           Li  tau( 239) = (   0.4608761   0.5649849   1.6204508  )
       240           Cr  tau( 240) = (   0.8396041   0.0898496   1.7025089  )
       241           Cr  tau( 241) = (   0.6643956   0.1951880   1.4337351  )
       242           N   tau( 242) = (   0.9321934   0.0985276   1.7397831  )
       243           N   tau( 243) = (   0.8498080   0.0877474   1.6041981  )
       244           N   tau( 244) = (   0.5707753   0.2050360   1.3970103  )
       245           N   tau( 245) = (   0.6994373   0.1091640   1.3970804  )
       246           N   tau( 246) = (   0.7234802   0.2765653   1.4025389  )
       247           N   tau( 247) = (   0.7862409   0.0135633   1.7412149  )
       248           N   tau( 248) = (   0.7834357   0.1723232   1.7392863  )
       249           N   tau( 249) = (   0.6569968   0.1817674   1.5374167  )
       250           O   tau( 250) = (   0.6596209   0.0162255   1.5683324  )
       251           Li  tau( 251) = (   0.7593284   0.3759836   0.8766270  )
       252           Li  tau( 252) = (   0.6280565   0.4696050   0.8766270  )
       253           Li  tau( 253) = (   0.6126161   0.3091127   0.8766270  )
       254           Li  tau( 254) = (   0.4103245   0.5003255   1.2891209  )
       255           Li  tau( 255) = (   0.5427396   0.4035318   1.2799221  )
       256           Li  tau( 256) = (   0.5483202   0.5564296   1.2669013  )
       257           Li  tau( 257) = (   0.5669941   0.3791318   1.0336250  )
       258           Li  tau( 258) = (   0.7214991   0.3014656   1.0336250  )
       259           Li  tau( 259) = (   0.7115055   0.4741032   1.0336250  )
       260           Li  tau( 260) = (   0.5928628   0.4877693   1.1336540  )
       261           Li  tau( 261) = (   0.4464322   0.5735122   1.1147013  )
       262           Li  tau( 262) = (   0.4612858   0.4100399   1.1127143  )
       263           Li  tau( 263) = (   0.5000000   0.2886750   0.9626942  )
       264           Li  tau( 264) = (   0.5146350   0.2999969   1.1799107  )
       265           Cr  tau( 265) = (   0.6637586   0.3891803   1.2035679  )
       266           Cr  tau( 266) = (   0.5000000   0.4811250   0.9478909  )
       267           N   tau( 267) = (   0.7548693   0.3820381   1.2392174  )
       268           N   tau( 268) = (   0.6557520   0.3886479   1.1049006  )
       269           N   tau( 269) = (   0.4030661   0.4869528   0.9168466  )
       270           N   tau( 270) = (   0.5434199   0.3942641   0.9168466  )
       271           N   tau( 271) = (   0.5535140   0.5621587   0.9168466  )
       272           N   tau( 272) = (   0.6111142   0.3136191   1.2385103  )
       273           N   tau( 273) = (   0.6247720   0.4734323   1.2328180  )
       274           N   tau( 274) = (   0.5000000   0.4811250   1.0497374  )
       275           O   tau( 275) = (   0.4943972   0.3029126   1.0743473  )
       276           Li  tau( 276) = (   0.7526661   0.3770191   1.3610686  )
       277           Li  tau( 277) = (   0.6239129   0.4807422   1.3600517  )
       278           Li  tau( 278) = (   0.6162045   0.3152573   1.3688588  )
       279           Li  tau( 279) = (   0.6489143   0.0047747   1.6867764  )
       280           Li  tau( 280) = (   0.5428220   0.4116225   1.7541598  )
       281           Li  tau( 281) = (   0.5574354   0.5685312   1.7841930  )
       282           Li  tau( 282) = (   0.5576814   0.3816097   1.5307952  )
       283           Li  tau( 283) = (   0.7205114   0.3033234   1.5137361  )
       284           Li  tau( 284) = (   0.6865275   0.4754486   1.5217484  )
       285           Li  tau( 285) = (   0.6010330   0.5111174   1.6067871  )
       286           Li  tau( 286) = (   0.3993573   0.4967190   1.7924333  )
       287           Li  tau( 287) = (   0.4407306   0.4152944   1.6108956  )
       288           Li  tau( 288) = (   0.5062416   0.2811904   1.4333435  )
       289           Li  tau( 289) = (   0.4942943   0.2904230   1.6755731  )
       290           Cr  tau( 290) = (   0.6554890   0.3882125   1.7014745  )
       291           Cr  tau( 291) = (   0.4961568   0.4867723   1.4455228  )
       292           N   tau( 292) = (   0.7532154   0.3751887   1.7276798  )
       293           N   tau( 293) = (   0.6499780   0.3989085   1.6046890  )
       294           N   tau( 294) = (   0.3935535   0.4946298   1.4212928  )
       295           N   tau( 295) = (   0.5433725   0.4050636   1.4060921  )
       296           N   tau( 296) = (   0.5566757   0.5638137   1.4079097  )
       297           N   tau( 297) = (   0.6003317   0.3014387   1.7473922  )
       298           N   tau( 298) = (   0.6305519   0.4784607   1.7379013  )
       299           N   tau( 299) = (   0.4983683   0.4898662   1.5478193  )
       300           O   tau( 300) = (   0.4896593   0.2850849   1.5663863  )

   Crystallographic axes

     site n.     atom                  positions (cryst. coord.)
         1           Li  tau(   1) = (  0.3097346  0.1512218  0.3321863  )
         2           Li  tau(   2) = (  0.2325188  0.3133799  0.3321863  )
         3           Li  tau(   3) = (  0.1244139  0.0353984  0.3321863  )
         4           Li  tau(   4) = (  0.0164698  0.3360207  0.4795020  )
         5           Li  tau(   5) = (  0.1066086  0.1605780  0.4843719  )
         6           Li  tau(   6) = (  0.1990078  0.4588927  0.4837385  )
         7           Li  tau(   7) = (  0.1192194  0.1566758  0.3916786  )
         8           Li  tau(   8) = (  0.2288830  0.0221536  0.3916786  )
         9           Li  tau(   9) = (  0.3185643  0.3211711  0.3916786  )
        10           Li  tau(  10) = (  0.2308864  0.3589237  0.4239007  )
        11           Li  tau(  11) = (  0.1052235  0.4857646  0.4268284  )
        12           Li  tau(  12) = ( -0.0006942  0.1686982  0.4273886  )
        13           Li  tau(  13) = (  0.0000000  0.0000000  0.3648003  )
        14           Li  tau(  14) = (  0.0182239  0.0322393  0.4512529  )
        15           Cr  tau(  15) = (  0.2300265  0.1717561  0.4553277  )
        16           Cr  tau(  16) = (  0.1111111  0.3333332  0.3591908  )
        17           N   tau(  17) = (  0.3173341  0.1426704  0.4670628  )
        18           N   tau(  18) = (  0.2143890  0.1761756  0.4169735  )
        19           N   tau(  19) = (  0.0175419  0.3434273  0.3474270  )
        20           N   tau(  20) = (  0.1043816  0.1828847  0.3474270  )
        21           N   tau(  21) = (  0.2114100  0.4736876  0.3474270  )
        22           N   tau(  22) = (  0.1256553  0.0281316  0.4690581  )
        23           N   tau(  23) = (  0.2571526  0.3219374  0.4680947  )
        24           N   tau(  24) = (  0.1111111  0.3333332  0.3977842  )
        25           O   tau(  25) = (  0.0070674  0.0033967  0.4078871  )
        26           Li  tau(  26) = (  0.3236378  0.1588835  0.5200287  )
        27           Li  tau(  27) = (  0.2355458  0.2838366  0.5147625  )
        28           Li  tau(  28) = (  0.1333661  0.0378094  0.5123575  )
        29           Li  tau(  29) = (  0.0064472  0.3463901  0.6655308  )
        30           Li  tau(  30) = (  0.0988412  0.1835599  0.6695879  )
        31           Li  tau(  31) = (  0.2223140  0.5029839  0.6682060  )
        32           Li  tau(  32) = (  0.1265396  0.1563367  0.5754441  )
        33           Li  tau(  33) = (  0.2274924  0.0572774  0.5749103  )
        34           Li  tau(  34) = (  0.3355549  0.3794206  0.5747908  )
        35           Li  tau(  35) = (  0.2147297  0.3752521  0.6031019  )
        36           Li  tau(  36) = (  0.0914313  0.4985158  0.6080005  )
        37           Li  tau(  37) = (  0.0330422  0.1928614  0.6090680  )
        38           Li  tau(  38) = (  0.0139024  1.0089387  0.5517570  )
        39           Li  tau(  39) = (  0.9960279  0.0203157  0.6386569  )
        40           Cr  tau(  40) = (  0.2152291  0.1813573  0.6427959  )
        41           Cr  tau(  41) = (  0.1006968  0.3243506  0.5459459  )
        42           N   tau(  42) = (  0.3145756  0.1771797  0.6534348  )
        43           N   tau(  43) = (  0.2229822  0.1881798  0.6043930  )
        44           N   tau(  44) = (  0.0116677  0.3360490  0.5316420  )
        45           N   tau(  45) = (  0.0992292  0.1760136  0.5363325  )
        46           N   tau(  46) = (  0.2032928  0.4749913  0.5274299  )
        47           N   tau(  47) = (  0.1220698  0.0482795  0.6556316  )
        48           N   tau(  48) = (  0.2181753  0.3277335  0.6545598  )
        49           N   tau(  49) = (  0.1099490  0.3551561  0.5850088  )
        50           O   tau(  50) = (  0.0023830  0.9948199  0.5928683  )
        51           Li  tau(  51) = (  0.3097348  0.6512226  0.3321863  )
        52           Li  tau(  52) = (  0.2325186  0.8133797  0.3321863  )
        53           Li  tau(  53) = (  0.1244139  0.5353989  0.3321863  )
        54           Li  tau(  54) = (  0.0075193  0.8579517  0.4755778  )
        55           Li  tau(  55) = (  0.0906068  0.6797516  0.4867548  )
        56           Li  tau(  56) = (  0.2257318  0.9791302  0.4847616  )
        57           Li  tau(  57) = (  0.1192194  0.6566756  0.3916786  )
        58           Li  tau(  58) = (  0.2288831  0.5221537  0.3916786  )
        59           Li  tau(  59) = (  0.3185642  0.8211709  0.3916786  )
        60           Li  tau(  60) = (  0.2150982  0.8514491  0.4256236  )
        61           Li  tau(  61) = (  0.1165524  0.9785178  0.4203640  )
        62           Li  tau(  62) = (  0.0009993  0.6755022  0.4210062  )
        63           Li  tau(  63) = ( -0.0000001  0.4999998  0.3648003  )
        64           Li  tau(  64) = ( -0.0032342  0.5245507  0.4525949  )
        65           Cr  tau(  65) = (  0.2159286  0.6556329  0.4575667  )
        66           Cr  tau(  66) = (  0.1111110  0.8333330  0.3591908  )
        67           N   tau(  67) = (  0.3071016  0.6433211  0.4677028  )
        68           N   tau(  68) = (  0.2187713  0.6505515  0.4202378  )
        69           N   tau(  69) = (  0.0175418  0.8434271  0.3474270  )
        70           N   tau(  70) = (  0.1043818  0.6828855  0.3474270  )
        71           N   tau(  71) = (  0.2114098  0.9736874  0.3474270  )
        72           N   tau(  72) = (  0.1122602  0.5288021  0.4698708  )
        73           N   tau(  73) = (  0.2195466  0.8122338  0.4691046  )
        74           N   tau(  74) = (  0.1111110  0.8333330  0.3977842  )
        75           O   tau(  75) = (  0.9986476  0.5034819  0.4095082  )
        76           Li  tau(  76) = (  0.3045714  0.6336703  0.5123796  )
        77           Li  tau(  77) = (  0.2275777  0.8037360  0.5140937  )
        78           Li  tau(  78) = (  0.1192526  0.5314198  0.5163348  )
        79           Li  tau(  79) = (  0.0238640  0.8169600  0.6820271  )
        80           Li  tau(  80) = (  0.0816162  0.6551977  0.6729961  )
        81           Li  tau(  81) = (  0.1795599  0.9410446  0.6543737  )
        82           Li  tau(  82) = (  0.1120053  0.6768870  0.5789010  )
        83           Li  tau(  83) = (  0.2177523  0.5504023  0.5704258  )
        84           Li  tau(  84) = (  0.3200890  0.8116933  0.5849800  )
        85           Li  tau(  85) = (  0.2196835  0.8549767  0.6074070  )
        86           Li  tau(  86) = (  0.0794294  0.9532370  0.6135303  )
        87           Li  tau(  87) = (  0.0196215  0.6915544  0.6194742  )
        88           Li  tau(  88) = (  0.0142248  0.5177869  0.5478350  )
        89           Li  tau(  89) = (  0.9544823  0.4609981  0.6249155  )
        90           Cr  tau(  90) = (  0.2179095  0.6699592  0.6391220  )
        91           Cr  tau(  91) = (  0.1020903  0.8402193  0.5438155  )
        92           N   tau(  92) = (  0.3170642  0.6867685  0.6538732  )
        93           N   tau(  93) = (  0.2173064  0.6579874  0.5979220  )
        94           N   tau(  94) = (  0.0122872  0.8426729  0.5331435  )
        95           N   tau(  95) = (  0.0929531  0.6812680  0.5341112  )
        96           N   tau(  96) = (  0.2124064  0.9817792  0.5285881  )
        97           N   tau(  97) = (  0.1278491  0.5416748  0.6561166  )
        98           N   tau(  98) = (  0.2158147  0.8072667  0.6539352  )
        99           N   tau(  99) = (  0.1137875  0.8620999  0.5841385  )
       100           O   tau( 100) = (  0.9942008  0.5214897  0.5911985  )
       101           Li  tau( 101) = (  0.6430655  0.1512218  0.3321863  )
       102           Li  tau( 102) = (  0.5658521  0.3133799  0.3321863  )
       103           Li  tau( 103) = (  0.4577472  0.0353984  0.3321863  )
       104           Li  tau( 104) = (  0.3631106  0.3311336  0.4879152  )
       105           Li  tau( 105) = (  0.4280421  0.1819676  0.4841238  )
       106           Li  tau( 106) = (  0.5283368  0.4631785  0.4863871  )
       107           Li  tau( 107) = (  0.4525527  0.1566758  0.3916786  )
       108           Li  tau( 108) = (  0.5622164  0.0221536  0.3916786  )
       109           Li  tau( 109) = (  0.6518976  0.3211711  0.3916786  )
       110           Li  tau( 110) = (  0.5392804  0.3449051  0.4282102  )
       111           Li  tau( 111) = (  0.4485867  0.4814656  0.4241598  )
       112           Li  tau( 112) = (  0.3726034  0.1837694  0.4248153  )
       113           Li  tau( 113) = (  0.3333333  0.0000000  0.3648003  )
       114           Li  tau( 114) = (  0.3278210  0.9922833  0.4540942  )
       115           Cr  tau( 115) = (  0.5564654  0.1734901  0.4554495  )
       116           Cr  tau( 116) = (  0.4444444  0.3333332  0.3591908  )
       117           N   tau( 117) = (  0.6425220  0.1556575  0.4714520  )
       118           N   tau( 118) = (  0.5550468  0.1812844  0.4197041  )
       119           N   tau( 119) = (  0.3508752  0.3434273  0.3474270  )
       120           N   tau( 120) = (  0.4377148  0.1828847  0.3474270  )
       121           N   tau( 121) = (  0.5447432  0.4736876  0.3474270  )
       122           N   tau( 122) = (  0.4523916  0.0286115  0.4685399  )
       123           N   tau( 123) = (  0.5460729  0.3109495  0.4723379  )
       124           N   tau( 124) = (  0.4444444  0.3333332  0.3977842  )
       125           O   tau( 125) = (  0.3246530  0.9764832  0.4058120  )
       126           Li  tau( 126) = (  0.6316485  0.9748676  0.5499831  )
       127           Li  tau( 127) = (  0.5550362  0.2921198  0.5138656  )
       128           Li  tau( 128) = (  0.6395084  0.1546817  0.5158078  )
       129           Li  tau( 129) = (  0.3386342  0.3468679  0.6716408  )
       130           Li  tau( 130) = (  0.4456163  0.2439037  0.6591395  )
       131           Li  tau( 131) = (  0.5686183  0.5109826  0.6746858  )
       132           Li  tau( 132) = (  0.4463593  0.1642716  0.5764517  )
       133           Li  tau( 133) = (  0.3321354  0.8797837  0.6718866  )
       134           Li  tau( 134) = (  0.6233212  0.3286607  0.5733535  )
       135           Li  tau( 135) = (  0.5516322  0.3373386  0.6094001  )
       136           Li  tau( 136) = (  0.4673360  0.4581122  0.6180791  )
       137           Li  tau( 137) = (  0.3464380  0.2006870  0.6064038  )
       138           Li  tau( 138) = (  0.4482686  0.0427729  0.5157369  )
       139           Li  tau( 139) = (  0.4312815  0.9596516  0.6213212  )
       140           Cr  tau( 140) = (  0.5535343  0.1592863  0.6485583  )
       141           Cr  tau( 141) = (  0.4474272  0.3314413  0.5453103  )
       142           N   tau( 142) = (  0.6350567  0.1212868  0.6665716  )
       143           N   tau( 143) = (  0.5462213  0.1412097  0.6084523  )
       144           N   tau( 144) = (  0.3547185  0.3383276  0.5312566  )
       145           N   tau( 145) = (  0.4415514  0.1851339  0.5329973  )
       146           N   tau( 146) = (  0.5454145  0.4817116  0.5287963  )
       147           N   tau( 147) = (  0.4476876  0.0341290  0.6601183  )
       148           N   tau( 148) = (  0.5696702  0.3171515  0.6578617  )
       149           N   tau( 149) = (  0.4579273  0.3355277  0.5839104  )
       150           O   tau( 150) = (  0.3367795  0.0094287  0.5909040  )
       151           Li  tau( 151) = (  0.6430682  0.6512226  0.3321863  )
       152           Li  tau( 152) = (  0.5658520  0.8133797  0.3321863  )
       153           Li  tau( 153) = (  0.4577474  0.5353989  0.3321863  )
       154           Li  tau( 154) = (  0.3516998  0.8429715  0.4842988  )
       155           Li  tau( 155) = (  0.4269964  0.6681584  0.4815173  )
       156           Li  tau( 156) = (  0.5180101  0.9543262  0.4815306  )
       157           Li  tau( 157) = (  0.4525527  0.6566756  0.3916786  )
       158           Li  tau( 158) = (  0.5622164  0.5221537  0.3916786  )
       159           Li  tau( 159) = (  0.6518976  0.8211709  0.3916786  )
       160           Li  tau( 160) = (  0.5662089  0.8660274  0.4262703  )
       161           Li  tau( 161) = (  0.4354919  0.9779175  0.4203396  )
       162           Li  tau( 162) = (  0.3395785  0.6943907  0.4253667  )
       163           Li  tau( 163) = (  0.3333333  0.4999998  0.3648003  )
       164           Li  tau( 164) = (  0.3517444  0.5029758  0.4478668  )
       165           Cr  tau( 165) = (  0.5653395  0.6780774  0.4539480  )
       166           Cr  tau( 166) = (  0.4444443  0.8333330  0.3591908  )
       167           N   tau( 167) = (  0.6573495  0.6589612  0.4651516  )
       168           N   tau( 168) = (  0.5604412  0.6879579  0.4177065  )
       169           N   tau( 169) = (  0.3508751  0.8434271  0.3474270  )
       170           N   tau( 170) = (  0.4377151  0.6828855  0.3474270  )
       171           N   tau( 171) = (  0.5447431  0.9736874  0.3474270  )
       172           N   tau( 172) = (  0.4661748  0.5336477  0.4662611  )
       173           N   tau( 173) = (  0.5633438  0.8156856  0.4686462  )
       174           N   tau( 174) = (  0.4444443  0.8333330  0.3977842  )
       175           O   tau( 175) = (  0.3381863  0.4988691  0.4061309  )
       176           Li  tau( 176) = (  0.6535360  0.6533696  0.5134050  )
       177           Li  tau( 177) = (  0.5610693  0.8193620  0.5162529  )
       178           Li  tau( 178) = (  0.4390753  0.5283071  0.5146650  )
       179           Li  tau( 179) = (  0.3567510  0.0497662  0.6339354  )
       180           Li  tau( 180) = (  0.4354836  0.7090489  0.6585416  )
       181           Li  tau( 181) = (  0.5287308  0.9539112  0.6836061  )
       182           Li  tau( 182) = (  0.4476897  0.6399179  0.5743146  )
       183           Li  tau( 183) = (  0.5723132  0.5460396  0.5755127  )
       184           Li  tau( 184) = (  0.6637419  0.8604732  0.5778380  )
       185           Li  tau( 185) = (  0.5332029  0.8219635  0.6096415  )
       186           Li  tau( 186) = (  0.2935829  0.9364237  0.5542461  )
       187           Li  tau( 187) = (  0.3437867  0.6578801  0.6098298  )
       188           Li  tau( 188) = (  0.3198367  0.5243331  0.5445552  )
       189           Li  tau( 189) = (  0.3299108  0.4863942  0.6421825  )
       190           Cr  tau( 190) = (  0.5503453  0.6758656  0.6435245  )
       191           Cr  tau( 191) = (  0.4306684  0.8258414  0.5429872  )
       192           N   tau( 192) = (  0.6576728  0.7049230  0.6525888  )
       193           N   tau( 193) = (  0.5410068  0.6571422  0.6065832  )
       194           N   tau( 194) = (  0.3316390  0.8056340  0.5310529  )
       195           N   tau( 195) = (  0.4406168  0.6853088  0.5337392  )
       196           N   tau( 196) = (  0.5238492  0.9675097  0.5258331  )
       197           N   tau( 197) = (  0.4633194  0.5285005  0.6616840  )
       198           N   tau( 198) = (  0.5585636  0.8268688  0.6584441  )
       199           N   tau( 199) = (  0.4425527  0.8480641  0.5796606  )
       200           O   tau( 200) = (  0.3080895  0.5154851  0.5870839  )
       201           Li  tau( 201) = (  0.9764000  0.1512218  0.3321863  )
       202           Li  tau( 202) = (  0.8991866  0.3133799  0.3321863  )
       203           Li  tau( 203) = (  0.7910799  0.0353984  0.3321863  )
       204           Li  tau( 204) = (  0.6799682  0.3460054  0.4871423  )
       205           Li  tau( 205) = (  0.7637494  0.1935325  0.4812914  )
       206           Li  tau( 206) = (  0.8865940  0.4782082  0.4824208  )
       207           Li  tau( 207) = (  0.7858861  0.1566758  0.3916786  )
       208           Li  tau( 208) = (  0.8955479  0.0221536  0.3916786  )
       209           Li  tau( 209) = (  0.9852327  0.3211711  0.3916786  )
       210           Li  tau( 210) = (  0.8882044  0.3604167  0.4263212  )
       211           Li  tau( 211) = (  0.7763063  0.4753962  0.4200429  )
       212           Li  tau( 212) = (  0.6779378  0.1686141  0.4261640  )
       213           Li  tau( 213) = (  0.6666690  0.0000000  0.3648003  )
       214           Li  tau( 214) = (  0.6613059  0.9861865  0.4576154  )
       215           Cr  tau( 215) = (  0.8849924  0.1678813  0.4574094  )
       216           Cr  tau( 216) = (  0.7777800  0.3333332  0.3591908  )
       217           N   tau( 217) = (  0.9751493  0.1546229  0.4691267  )
       218           N   tau( 218) = (  0.8750247  0.1652940  0.4178615  )
       219           N   tau( 219) = (  0.6842085  0.3434273  0.3474270  )
       220           N   tau( 220) = (  0.7710469  0.1828847  0.3474270  )
       221           N   tau( 221) = (  0.8780741  0.4736876  0.3474270  )
       222           N   tau( 222) = (  0.7881425  0.0296016  0.4708785  )
       223           N   tau( 223) = (  0.8967409  0.3168428  0.4706836  )
       224           N   tau( 224) = (  0.7777800  0.3333332  0.3977842  )
       225           O   tau( 225) = (  0.6714705  0.0088645  0.4081683  )
       226           Li  tau( 226) = (  0.9734367  0.1316896  0.5201572  )
       227           Li  tau( 227) = (  0.8986662  0.3151675  0.5186336  )
       228           Li  tau( 228) = (  0.8057839  0.0412017  0.5189392  )
       229           Li  tau( 229) = (  0.6870653  0.3633502  0.6804769  )
       230           Li  tau( 230) = (  0.7489936  0.1646411  0.6702611  )
       231           Li  tau( 231) = (  0.8730510  0.4770624  0.6720394  )
       232           Li  tau( 232) = (  0.7615644  0.1243863  0.5706185  )
       233           Li  tau( 233) = (  0.9121284  0.0556598  0.5735595  )
       234           Li  tau( 234) = (  0.9743264  0.3162587  0.5800637  )
       235           Li  tau( 235) = (  0.8268458  0.2687724  0.6187545  )
       236           Li  tau( 236) = (  0.7568033  0.4555290  0.6085365  )
       237           Li  tau( 237) = (  0.6656031  0.1856805  0.6095485  )
       238           Li  tau( 238) = (  0.5453493  0.0452644  0.5735506  )
       239           Li  tau( 239) = (  0.7870703  0.9785826  0.6140485  )
       240           Cr  tau( 240) = (  0.8914788  0.1556241  0.6451434  )
       241           Cr  tau( 241) = (  0.7770874  0.3380755  0.5432951  )
       242           N   tau( 242) = (  0.9890784  0.1706548  0.6592679  )
       243           N   tau( 243) = (  0.9004690  0.1519830  0.6078898  )
       244           N   tau( 244) = (  0.6891529  0.3551328  0.5293787  )
       245           N   tau( 245) = (  0.7624632  0.1890776  0.5294053  )
       246           N   tau( 246) = (  0.8831553  0.4790251  0.5314737  )
       247           N   tau( 247) = (  0.7940717  0.0234924  0.6598105  )
       248           N   tau( 248) = (  0.8829265  0.2984726  0.6590797  )
       249           N   tau( 249) = (  0.7619403  0.3148304  0.5825839  )
       250           O   tau( 250) = (  0.6689887  0.0281035  0.5942990  )
       251           Li  tau( 251) = (  0.9764026  0.6512226  0.3321863  )
       252           Li  tau( 252) = (  0.8991830  0.8133797  0.3321863  )
       253           Li  tau( 253) = (  0.7910824  0.5353989  0.3321863  )
       254           Li  tau( 254) = (  0.6991876  0.8665892  0.4884954  )
       255           Li  tau( 255) = (  0.7757188  0.6989377  0.4850097  )
       256           Li  tau( 256) = (  0.8695750  0.9637644  0.4800756  )
       257           Li  tau( 257) = (  0.7858860  0.6566756  0.3916786  )
       258           Li  tau( 258) = (  0.8955503  0.5221537  0.3916786  )
       259           Li  tau( 259) = (  0.9852291  0.8211709  0.3916786  )
       260           Li  tau( 260) = (  0.8744765  0.8448412  0.4295833  )
       261           Li  tau( 261) = (  0.7775496  0.9933522  0.4224014  )
       262           Li  tau( 262) = (  0.6980224  0.7102100  0.4216485  )
       263           Li  tau( 263) = (  0.6666666  0.4999998  0.3648003  )
       264           Li  tau( 264) = (  0.6878383  0.5196099  0.4471116  )
       265           Cr  tau( 265) = (  0.8884519  0.6740800  0.4560762  )
       266           Cr  tau( 266) = (  0.7777776  0.8333330  0.3591908  )
       267           N   tau( 267) = (  0.9754391  0.6617094  0.4695852  )
       268           N   tau( 268) = (  0.8801380  0.6731579  0.4186876  )
       269           N   tau( 269) = (  0.6842084  0.8434271  0.3474270  )
       270           N   tau( 270) = (  0.7710484  0.6828855  0.3474270  )
       271           N   tau( 271) = (  0.8780764  0.9736874  0.3474270  )
       272           N   tau( 272) = (  0.7921823  0.5432043  0.4693172  )
       273           N   tau( 273) = (  0.8981083  0.8200088  0.4671602  )
       274           N   tau( 274) = (  0.7777776  0.8333330  0.3977842  )
       275           O   tau( 275) = (  0.6692838  0.5246600  0.4071098  )
       276           Li  tau( 276) = (  0.9703382  0.6530163  0.5157590  )
       277           Li  tau( 277) = (  0.9014696  0.8326700  0.5153737  )
       278           Li  tau( 278) = (  0.7982183  0.5460416  0.5187111  )
       279           Li  tau( 279) = (  0.6516710  0.0082699  0.6391817  )
       280           Li  tau( 280) = (  0.7804724  0.7129511  0.6647158  )
       281           Li  tau( 281) = (  0.8856770  0.9847248  0.6760965  )
       282           Li  tau( 282) = (  0.7780039  0.6609675  0.5800747  )
       283           Li  tau( 283) = (  0.8956353  0.5253716  0.5736104  )
       284           Li  tau( 284) = (  0.9610278  0.8235011  0.5766466  )
       285           Li  tau( 285) = (  0.8961267  0.8852812  0.6088709  )
       286           Li  tau( 286) = (  0.6861382  0.8603426  0.6792191  )
       287           Li  tau( 287) = (  0.6805010  0.7193110  0.6104277  )
       288           Li  tau( 288) = (  0.6685869  0.4870360  0.5431467  )
       289           Li  tau( 289) = (  0.6619701  0.5030274  0.6349364  )
       290           Cr  tau( 290) = (  0.8796236  0.6724038  0.6447514  )
       291           Cr  tau( 291) = (  0.7771949  0.8431143  0.5477619  )
       292           N   tau( 292) = (  0.9698307  0.6498460  0.6546816  )
       293           N   tau( 293) = (  0.8802879  0.6909298  0.6080758  )
       294           N   tau( 294) = (  0.6791281  0.8567239  0.5385802  )
       295           N   tau( 295) = (  0.7772361  0.7015907  0.5328201  )
       296           N   tau( 296) = (  0.8821937  0.9765540  0.5335089  )
       297           N   tau( 297) = (  0.7743674  0.5221071  0.6621513  )
       298           N   tau( 298) = (  0.9067913  0.8287182  0.6585549  )
       299           N   tau( 299) = (  0.7811926  0.8484731  0.5865258  )
       300           O   tau( 300) = (  0.6542531  0.4937816  0.5935615  )

     number of k points=     1  Gaussian smearing, width (Ry)=  0.0147
                       cart. coord. in units 2pi/alat
        k(    1) = (   0.0000000   0.0000000   0.0000000), wk =   2.0000000

                       cryst. coord.
        k(    1) = (   0.0000000   0.0000000   0.0000000), wk =   2.0000000

     Dense  grid:  5457965 G-vectors     FFT dimensions: ( 240, 160, 640)

     Smooth grid:  2970742 G-vectors     FFT dimensions: ( 200, 135, 540)

     Dynamical RAM for                 wfc:    1182.84 MB

     Dynamical RAM for     wfc (w. buffer):    1182.84 MB

     Dynamical RAM for           str. fact:      83.28 MB

     Dynamical RAM for           local pot:       0.00 MB

     Dynamical RAM for          nlocal pot:    3977.76 MB

     Dynamical RAM for                qrad:       7.46 MB

     Dynamical RAM for          rho,v,vnew:     203.09 MB

     Dynamical RAM for               rhoin:      67.70 MB

     Dynamical RAM for            rho*nmix:     333.13 MB

     Dynamical RAM for           G-vectors:      83.74 MB

     Dynamical RAM for          h,s,v(r/c):      63.83 MB

     Dynamical RAM for          <psi|beta>:      17.89 MB

     Dynamical RAM for                 psi:    2365.69 MB

     Dynamical RAM for                hpsi:    2365.69 MB

     Dynamical RAM for                spsi:    2365.69 MB

     Dynamical RAM for      wfcinit/wfcrot:    4336.08 MB

     Dynamical RAM for           addusdens:    7370.47 MB

     Dynamical RAM for          addusforce:   14335.60 MB

     Dynamical RAM for         addusstress:    4184.93 MB

     Estimated static dynamical RAM per process >       5.81 GB

     Estimated max dynamical RAM per process >      20.13 GB

     Estimated total dynamical RAM >      80.52 GB

     Check: negative core charge=   -0.000002

     Initial potential from superposition of free atoms

     starting charge    1292.2742, renormalised to    1392.0000

     negative rho (up, down):  2.458E-02 0.000E+00
     Starting wfcs are 1512 randomized atomic wfcs
     Checking if some PAW data can be deallocated... 

     total cpu time spent up to now is       35.0 secs

     per-process dynamical memory:  1708.6 Mb

     Self-consistent Calculation
[tb_dev] Currently allocated     1.26E+02 Mbytes, locked:    0 /  11
[tb_pin] Currently allocated     0.00E+00 Mbytes, locked:    0 /   0

     iteration #  1     ecut=    90.00 Ry     beta= 0.20
     Davidson diagonalization with overlap

---- Real-time Memory Report at c_bands before calling an iterative solver
         10172 MiB given to the printing process from OS
          1746 MiB allocation reported by mallinfo(arena+hblkhd)
        465824 MiB available memory on the node where the printing process lives
     GPU memory used/free/total (MiB): 16367 / 48601 / 64969
------------------
     ethr =  1.00E-02,  avg # of iterations =  3.0

     negative rho (up, down):  4.106E-02 0.000E+00

     total cpu time spent up to now is       38.8 secs

     total energy              =   -9071.90191170 Ry
     estimated scf accuracy    <     234.29906803 Ry
[tb_dev] Currently allocated     2.41E+01 Mbytes, locked:    0 /   6
[tb_pin] Currently allocated     0.00E+00 Mbytes, locked:    0 /   0

     iteration #  2     ecut=    90.00 Ry     beta= 0.20
     Davidson diagonalization with overlap

---- Real-time Memory Report at c_bands before calling an iterative solver
         10503 MiB given to the printing process from OS
          2013 MiB allocation reported by mallinfo(arena+hblkhd)
        464851 MiB available memory on the node where the printing process lives
     GPU memory used/free/total (MiB): 31249 / 33719 / 64969
------------------
     ethr =  1.00E-02,  avg # of iterations =  3.0

     negative rho (up, down):  7.398E-02 0.000E+00

     total cpu time spent up to now is       42.4 secs

     total energy              =   -9056.91444023 Ry
     estimated scf accuracy    <      58.48535149 Ry
[tb_dev] Currently allocated     2.41E+01 Mbytes, locked:    0 /   6
[tb_pin] Currently allocated     0.00E+00 Mbytes, locked:    0 /   0

     iteration #  3     ecut=    90.00 Ry     beta= 0.20
     Davidson diagonalization with overlap

---- Real-time Memory Report at c_bands before calling an iterative solver
         10538 MiB given to the printing process from OS
         -2047 MiB allocation reported by mallinfo(arena+hblkhd)
        464712 MiB available memory on the node where the printing process lives
     GPU memory used/free/total (MiB): 31249 / 33719 / 64969
------------------
     ethr =  4.20E-03,  avg # of iterations =  7.0

     negative rho (up, down):  6.271E-02 0.000E+00

     total cpu time spent up to now is       48.0 secs

     total energy              =   -9136.08159695 Ry
     estimated scf accuracy    <     803.77630428 Ry
[tb_dev] Currently allocated     2.41E+01 Mbytes, locked:    0 /   6
[tb_pin] Currently allocated     0.00E+00 Mbytes, locked:    0 /   0

     iteration #  4     ecut=    90.00 Ry     beta= 0.20
     Davidson diagonalization with overlap

---- Real-time Memory Report at c_bands before calling an iterative solver
         10573 MiB given to the printing process from OS
         -2012 MiB allocation reported by mallinfo(arena+hblkhd)
        464429 MiB available memory on the node where the printing process lives
     GPU memory used/free/total (MiB): 31249 / 33719 / 64969
------------------
     ethr =  4.20E-03,  avg # of iterations =  1.0

     negative rho (up, down):  4.498E-02 0.000E+00

     total cpu time spent up to now is       51.3 secs

     total energy              =   -9084.35241363 Ry
     estimated scf accuracy    <     999.44394310 Ry
[tb_dev] Currently allocated     2.41E+01 Mbytes, locked:    0 /   6
[tb_pin] Currently allocated     0.00E+00 Mbytes, locked:    0 /   0

     iteration #  5     ecut=    90.00 Ry     beta= 0.20
     Davidson diagonalization with overlap

---- Real-time Memory Report at c_bands before calling an iterative solver
         10596 MiB given to the printing process from OS
         -1989 MiB allocation reported by mallinfo(arena+hblkhd)
        464478 MiB available memory on the node where the printing process lives
     GPU memory used/free/total (MiB): 31249 / 33719 / 64969
------------------
     ethr =  4.20E-03,  avg # of iterations =  2.0

     negative rho (up, down):  3.863E-02 0.000E+00

     total cpu time spent up to now is       54.8 secs

     total energy              =   -9092.27729783 Ry
     estimated scf accuracy    <      80.48503662 Ry
[tb_dev] Currently allocated     2.41E+01 Mbytes, locked:    0 /   6
[tb_pin] Currently allocated     0.00E+00 Mbytes, locked:    0 /   0

     iteration #  6     ecut=    90.00 Ry     beta= 0.20
     Davidson diagonalization with overlap

---- Real-time Memory Report at c_bands before calling an iterative solver
         10620 MiB given to the printing process from OS
         -1965 MiB allocation reported by mallinfo(arena+hblkhd)
        464193 MiB available memory on the node where the printing process lives
     GPU memory used/free/total (MiB): 31249 / 33719 / 64969
------------------
     ethr =  4.20E-03,  avg # of iterations =  2.0

     negative rho (up, down):  2.642E-02 0.000E+00

     total cpu time spent up to now is       58.2 secs

     total energy              =   -9095.42416716 Ry
     estimated scf accuracy    <       6.15856647 Ry
[tb_dev] Currently allocated     2.41E+01 Mbytes, locked:    0 /   6
[tb_pin] Currently allocated     0.00E+00 Mbytes, locked:    0 /   0

     iteration #  7     ecut=    90.00 Ry     beta= 0.20
     Davidson diagonalization with overlap

---- Real-time Memory Report at c_bands before calling an iterative solver
         10643 MiB given to the printing process from OS
         -1942 MiB allocation reported by mallinfo(arena+hblkhd)
        464146 MiB available memory on the node where the printing process lives
     GPU memory used/free/total (MiB): 31251 / 33717 / 64969
------------------
     ethr =  4.42E-04,  avg # of iterations = 17.0

     negative rho (up, down):  2.816E-02 0.000E+00

     total cpu time spent up to now is       64.0 secs

     total energy              =   -9096.50931489 Ry
     estimated scf accuracy    <      88.77561251 Ry
[tb_dev] Currently allocated     2.41E+01 Mbytes, locked:    0 /   6
[tb_pin] Currently allocated     0.00E+00 Mbytes, locked:    0 /   0

     iteration #  8     ecut=    90.00 Ry     beta= 0.20
     Davidson diagonalization with overlap

---- Real-time Memory Report at c_bands before calling an iterative solver
         10667 MiB given to the printing process from OS
         -1918 MiB allocation reported by mallinfo(arena+hblkhd)
        464005 MiB available memory on the node where the printing process lives
     GPU memory used/free/total (MiB): 31671 / 33297 / 64969
------------------
     ethr =  4.42E-04,  avg # of iterations =  5.0

     negative rho (up, down):  3.411E-02 0.000E+00

     total cpu time spent up to now is       68.7 secs

     total energy              =   -9091.31738092 Ry
     estimated scf accuracy    <      28.90743269 Ry
[tb_dev] Currently allocated     2.41E+01 Mbytes, locked:    0 /   6
[tb_pin] Currently allocated     0.00E+00 Mbytes, locked:    0 /   0

     iteration #  9     ecut=    90.00 Ry     beta= 0.20
     Davidson diagonalization with overlap

---- Real-time Memory Report at c_bands before calling an iterative solver
         10690 MiB given to the printing process from OS
         -1895 MiB allocation reported by mallinfo(arena+hblkhd)
        464006 MiB available memory on the node where the printing process lives
     GPU memory used/free/total (MiB): 31671 / 33297 / 64969
------------------
     ethr =  4.42E-04,  avg # of iterations = 11.0

     negative rho (up, down):  3.493E-02 0.000E+00

     total cpu time spent up to now is       74.3 secs

     total energy              =   -9096.72851044 Ry
     estimated scf accuracy    <       6.63406287 Ry
[tb_dev] Currently allocated     2.41E+01 Mbytes, locked:    0 /   6
[tb_pin] Currently allocated     0.00E+00 Mbytes, locked:    0 /   0

     iteration # 10     ecut=    90.00 Ry     beta= 0.20
     Davidson diagonalization with overlap

---- Real-time Memory Report at c_bands before calling an iterative solver
         10714 MiB given to the printing process from OS
         -1871 MiB allocation reported by mallinfo(arena+hblkhd)
        463817 MiB available memory on the node where the printing process lives
     GPU memory used/free/total (MiB): 31671 / 33297 / 64969
------------------
     ethr =  4.42E-04,  avg # of iterations =  1.0

     negative rho (up, down):  3.222E-02 0.000E+00

     total cpu time spent up to now is       77.7 secs

     total energy              =   -9094.51863388 Ry
     estimated scf accuracy    <      10.77603277 Ry
[tb_dev] Currently allocated     2.41E+01 Mbytes, locked:    0 /   6
[tb_pin] Currently allocated     0.00E+00 Mbytes, locked:    0 /   0

     iteration # 11     ecut=    90.00 Ry     beta= 0.20
     Davidson diagonalization with overlap

---- Real-time Memory Report at c_bands before calling an iterative solver
         10714 MiB given to the printing process from OS
         -1871 MiB allocation reported by mallinfo(arena+hblkhd)
        463816 MiB available memory on the node where the printing process lives
     GPU memory used/free/total (MiB): 31671 / 33297 / 64969
------------------
     ethr =  4.42E-04,  avg # of iterations =  1.0

     negative rho (up, down):  3.319E-02 0.000E+00

     total cpu time spent up to now is       81.1 secs

     total energy              =   -9095.78567838 Ry
     estimated scf accuracy    <       0.85700395 Ry
[tb_dev] Currently allocated     2.41E+01 Mbytes, locked:    0 /   6
[tb_pin] Currently allocated     0.00E+00 Mbytes, locked:    0 /   0

     iteration # 12     ecut=    90.00 Ry     beta= 0.20
     Davidson diagonalization with overlap

---- Real-time Memory Report at c_bands before calling an iterative solver
         10714 MiB given to the printing process from OS
         -1871 MiB allocation reported by mallinfo(arena+hblkhd)
        463816 MiB available memory on the node where the printing process lives
     GPU memory used/free/total (MiB): 31671 / 33297 / 64969
------------------
     c_bands:  1 eigenvalues not converged
     ethr =  6.16E-05,  avg # of iterations = 20.0

     negative rho (up, down):  3.468E-02 0.000E+00

     total cpu time spent up to now is       85.7 secs

     total energy              =   -9095.79230863 Ry
     estimated scf accuracy    <       0.42412296 Ry
[tb_dev] Currently allocated     2.41E+01 Mbytes, locked:    0 /   6
[tb_pin] Currently allocated     0.00E+00 Mbytes, locked:    0 /   0

     iteration # 13     ecut=    90.00 Ry     beta= 0.20
     Davidson diagonalization with overlap

---- Real-time Memory Report at c_bands before calling an iterative solver
         10714 MiB given to the printing process from OS
         -1871 MiB allocation reported by mallinfo(arena+hblkhd)
        463816 MiB available memory on the node where the printing process lives
     GPU memory used/free/total (MiB): 31693 / 33275 / 64969
------------------
     c_bands:  3 eigenvalues not converged
     ethr =  3.05E-05,  avg # of iterations = 20.0

     negative rho (up, down):  3.710E-02 0.000E+00

     total cpu time spent up to now is       90.6 secs

     total energy              =   -9095.72102331 Ry
     estimated scf accuracy    <       0.39822189 Ry
[tb_dev] Currently allocated     2.41E+01 Mbytes, locked:    0 /   6
[tb_pin] Currently allocated     0.00E+00 Mbytes, locked:    0 /   0

     iteration # 14     ecut=    90.00 Ry     beta= 0.20
     Davidson diagonalization with overlap

---- Real-time Memory Report at c_bands before calling an iterative solver
         10714 MiB given to the printing process from OS
         -1871 MiB allocation reported by mallinfo(arena+hblkhd)
        463844 MiB available memory on the node where the printing process lives
     GPU memory used/free/total (MiB): 31693 / 33275 / 64969
------------------
     ethr =  2.86E-05,  avg # of iterations = 29.0

     negative rho (up, down):  3.706E-02 0.000E+00

     total cpu time spent up to now is       96.8 secs

     total energy              =   -9095.75449727 Ry
     estimated scf accuracy    <       0.18395204 Ry
[tb_dev] Currently allocated     2.41E+01 Mbytes, locked:    0 /   6
[tb_pin] Currently allocated     0.00E+00 Mbytes, locked:    0 /   0

     iteration # 15     ecut=    90.00 Ry     beta= 0.20
     Davidson diagonalization with overlap

---- Real-time Memory Report at c_bands before calling an iterative solver
         10714 MiB given to the printing process from OS
         -1871 MiB allocation reported by mallinfo(arena+hblkhd)
        464033 MiB available memory on the node where the printing process lives
     GPU memory used/free/total (MiB): 31693 / 33275 / 64969
------------------
     ethr =  1.32E-05,  avg # of iterations = 22.0

     negative rho (up, down):  3.835E-02 0.000E+00

     total cpu time spent up to now is      103.0 secs

     total energy              =   -9095.77812483 Ry
     estimated scf accuracy    <       0.13477893 Ry
[tb_dev] Currently allocated     2.41E+01 Mbytes, locked:    0 /   6
[tb_pin] Currently allocated     0.00E+00 Mbytes, locked:    0 /   0

     iteration # 16     ecut=    90.00 Ry     beta= 0.20
     Davidson diagonalization with overlap

---- Real-time Memory Report at c_bands before calling an iterative solver
         10714 MiB given to the printing process from OS
         -1871 MiB allocation reported by mallinfo(arena+hblkhd)
        464030 MiB available memory on the node where the printing process lives
     GPU memory used/free/total (MiB): 31717 / 33251 / 64969
------------------
     ethr =  9.68E-06,  avg # of iterations =  9.0

     negative rho (up, down):  3.906E-02 0.000E+00

     total cpu time spent up to now is      106.8 secs

     total energy              =   -9095.78837123 Ry
     estimated scf accuracy    <       0.00835101 Ry
[tb_dev] Currently allocated     2.41E+01 Mbytes, locked:    0 /   6
[tb_pin] Currently allocated     0.00E+00 Mbytes, locked:    0 /   0

     iteration # 17     ecut=    90.00 Ry     beta= 0.20
     Davidson diagonalization with overlap

---- Real-time Memory Report at c_bands before calling an iterative solver
         10714 MiB given to the printing process from OS
         -1871 MiB allocation reported by mallinfo(arena+hblkhd)
        464030 MiB available memory on the node where the printing process lives
     GPU memory used/free/total (MiB): 31717 / 33251 / 64969
------------------
     c_bands:  5 eigenvalues not converged
     ethr =  6.00E-07,  avg # of iterations = 40.0

     negative rho (up, down):  3.958E-02 0.000E+00

     total cpu time spent up to now is      114.3 secs

     total energy              =   -9095.78962977 Ry
     estimated scf accuracy    <       0.00749699 Ry
[tb_dev] Currently allocated     2.41E+01 Mbytes, locked:    0 /   6
[tb_pin] Currently allocated     0.00E+00 Mbytes, locked:    0 /   0

     iteration # 18     ecut=    90.00 Ry     beta= 0.20
     Davidson diagonalization with overlap

---- Real-time Memory Report at c_bands before calling an iterative solver
         10714 MiB given to the printing process from OS
         -1871 MiB allocation reported by mallinfo(arena+hblkhd)
        464030 MiB available memory on the node where the printing process lives
     GPU memory used/free/total (MiB): 31717 / 33251 / 64969
------------------
     ethr =  5.39E-07,  avg # of iterations =  9.0

     negative rho (up, down):  4.020E-02 0.000E+00

     total cpu time spent up to now is      118.1 secs

     total energy              =   -9095.78955538 Ry
     estimated scf accuracy    <       0.00214042 Ry
[tb_dev] Currently allocated     2.41E+01 Mbytes, locked:    0 /   6
[tb_pin] Currently allocated     0.00E+00 Mbytes, locked:    0 /   0

     iteration # 19     ecut=    90.00 Ry     beta= 0.20
     Davidson diagonalization with overlap

---- Real-time Memory Report at c_bands before calling an iterative solver
         10714 MiB given to the printing process from OS
         -1871 MiB allocation reported by mallinfo(arena+hblkhd)
        464030 MiB available memory on the node where the printing process lives
     GPU memory used/free/total (MiB): 31717 / 33251 / 64969
------------------
     ethr =  1.54E-07,  avg # of iterations =  5.0

     negative rho (up, down):  4.049E-02 0.000E+00

     total cpu time spent up to now is      122.0 secs

     total energy              =   -9095.78979962 Ry
     estimated scf accuracy    <       0.00086811 Ry
[tb_dev] Currently allocated     2.41E+01 Mbytes, locked:    0 /   6
[tb_pin] Currently allocated     0.00E+00 Mbytes, locked:    0 /   0

     iteration # 20     ecut=    90.00 Ry     beta= 0.20
     Davidson diagonalization with overlap

---- Real-time Memory Report at c_bands before calling an iterative solver
         10714 MiB given to the printing process from OS
         -1871 MiB allocation reported by mallinfo(arena+hblkhd)
        464030 MiB available memory on the node where the printing process lives
     GPU memory used/free/total (MiB): 31717 / 33251 / 64969
------------------
     ethr =  6.24E-08,  avg # of iterations =  2.0

     negative rho (up, down):  4.076E-02 0.000E+00

     total cpu time spent up to now is      125.5 secs

     total energy              =   -9095.78979260 Ry
     estimated scf accuracy    <       0.00040151 Ry
[tb_dev] Currently allocated     2.41E+01 Mbytes, locked:    0 /   6
[tb_pin] Currently allocated     0.00E+00 Mbytes, locked:    0 /   0

     iteration # 21     ecut=    90.00 Ry     beta= 0.20
     Davidson diagonalization with overlap

---- Real-time Memory Report at c_bands before calling an iterative solver
         10714 MiB given to the printing process from OS
         -1871 MiB allocation reported by mallinfo(arena+hblkhd)
        464030 MiB available memory on the node where the printing process lives
     GPU memory used/free/total (MiB): 31717 / 33251 / 64969
------------------
     ethr =  2.88E-08,  avg # of iterations =  5.0

     negative rho (up, down):  4.087E-02 0.000E+00

     total cpu time spent up to now is      129.2 secs

     total energy              =   -9095.78983295 Ry
     estimated scf accuracy    <       0.00007173 Ry
[tb_dev] Currently allocated     2.41E+01 Mbytes, locked:    0 /   6
[tb_pin] Currently allocated     0.00E+00 Mbytes, locked:    0 /   0

     iteration # 22     ecut=    90.00 Ry     beta= 0.20
     Davidson diagonalization with overlap

---- Real-time Memory Report at c_bands before calling an iterative solver
         10714 MiB given to the printing process from OS
         -1871 MiB allocation reported by mallinfo(arena+hblkhd)
        464030 MiB available memory on the node where the printing process lives
     GPU memory used/free/total (MiB): 31717 / 33251 / 64969
------------------
     ethr =  5.15E-09,  avg # of iterations =  5.0

     negative rho (up, down):  4.094E-02 0.000E+00

     total cpu time spent up to now is      133.2 secs

     total energy              =   -9095.78984409 Ry
     estimated scf accuracy    <       0.00004275 Ry
[tb_dev] Currently allocated     2.41E+01 Mbytes, locked:    0 /   6
[tb_pin] Currently allocated     0.00E+00 Mbytes, locked:    0 /   0

     iteration # 23     ecut=    90.00 Ry     beta= 0.20
     Davidson diagonalization with overlap

---- Real-time Memory Report at c_bands before calling an iterative solver
         10714 MiB given to the printing process from OS
         -1871 MiB allocation reported by mallinfo(arena+hblkhd)
        464030 MiB available memory on the node where the printing process lives
     GPU memory used/free/total (MiB): 31717 / 33251 / 64969
------------------
     ethr =  3.07E-09,  avg # of iterations =  2.0

     negative rho (up, down):  4.101E-02 0.000E+00

     total cpu time spent up to now is      136.7 secs

     total energy              =   -9095.78984702 Ry
     estimated scf accuracy    <       0.00001380 Ry
[tb_dev] Currently allocated     2.41E+01 Mbytes, locked:    0 /   6
[tb_pin] Currently allocated     0.00E+00 Mbytes, locked:    0 /   0

     iteration # 24     ecut=    90.00 Ry     beta= 0.20
     Davidson diagonalization with overlap

---- Real-time Memory Report at c_bands before calling an iterative solver
         10714 MiB given to the printing process from OS
         -1871 MiB allocation reported by mallinfo(arena+hblkhd)
        464030 MiB available memory on the node where the printing process lives
     GPU memory used/free/total (MiB): 31717 / 33251 / 64969
------------------
     ethr =  9.92E-10,  avg # of iterations =  5.0

     negative rho (up, down):  4.104E-02 0.000E+00

     total cpu time spent up to now is      140.7 secs

     total energy              =   -9095.78984916 Ry
     estimated scf accuracy    <       0.00000689 Ry
[tb_dev] Currently allocated     2.41E+01 Mbytes, locked:    0 /   6
[tb_pin] Currently allocated     0.00E+00 Mbytes, locked:    0 /   0

     iteration # 25     ecut=    90.00 Ry     beta= 0.20
     Davidson diagonalization with overlap

---- Real-time Memory Report at c_bands before calling an iterative solver
         10714 MiB given to the printing process from OS
         -1871 MiB allocation reported by mallinfo(arena+hblkhd)
        464030 MiB available memory on the node where the printing process lives
     GPU memory used/free/total (MiB): 31717 / 33251 / 64969
------------------
     ethr =  4.95E-10,  avg # of iterations =  2.0

     negative rho (up, down):  4.107E-02 0.000E+00

     total cpu time spent up to now is      144.3 secs

     total energy              =   -9095.78984971 Ry
     estimated scf accuracy    <       0.00000325 Ry
[tb_dev] Currently allocated     2.41E+01 Mbytes, locked:    0 /   6
[tb_pin] Currently allocated     0.00E+00 Mbytes, locked:    0 /   0

     iteration # 26     ecut=    90.00 Ry     beta= 0.20
     Davidson diagonalization with overlap

---- Real-time Memory Report at c_bands before calling an iterative solver
         10714 MiB given to the printing process from OS
         -1871 MiB allocation reported by mallinfo(arena+hblkhd)
        464030 MiB available memory on the node where the printing process lives
     GPU memory used/free/total (MiB): 31717 / 33251 / 64969
------------------
     ethr =  2.33E-10,  avg # of iterations =  4.0

     negative rho (up, down):  4.109E-02 0.000E+00

     total cpu time spent up to now is      148.1 secs

     total energy              =   -9095.78985015 Ry
     estimated scf accuracy    <       0.00000127 Ry
[tb_dev] Currently allocated     2.41E+01 Mbytes, locked:    0 /   6
[tb_pin] Currently allocated     0.00E+00 Mbytes, locked:    0 /   0

     iteration # 27     ecut=    90.00 Ry     beta= 0.20
     Davidson diagonalization with overlap

---- Real-time Memory Report at c_bands before calling an iterative solver
         10714 MiB given to the printing process from OS
         -1871 MiB allocation reported by mallinfo(arena+hblkhd)
        464030 MiB available memory on the node where the printing process lives
     GPU memory used/free/total (MiB): 31717 / 33251 / 64969
------------------
     ethr =  9.14E-11,  avg # of iterations =  2.0

     negative rho (up, down):  4.110E-02 0.000E+00

     total cpu time spent up to now is      151.9 secs

     total energy              =   -9095.78985034 Ry
     estimated scf accuracy    <       0.00000040 Ry
[tb_dev] Currently allocated     2.41E+01 Mbytes, locked:    0 /   6
[tb_pin] Currently allocated     0.00E+00 Mbytes, locked:    0 /   0

     iteration # 28     ecut=    90.00 Ry     beta= 0.20
     Davidson diagonalization with overlap

---- Real-time Memory Report at c_bands before calling an iterative solver
         10714 MiB given to the printing process from OS
         -1871 MiB allocation reported by mallinfo(arena+hblkhd)
        464030 MiB available memory on the node where the printing process lives
     GPU memory used/free/total (MiB): 31717 / 33251 / 64969
------------------
     ethr =  2.88E-11,  avg # of iterations =  5.0

     negative rho (up, down):  4.111E-02 0.000E+00

     total cpu time spent up to now is      155.9 secs

     total energy              =   -9095.78985041 Ry
     estimated scf accuracy    <       0.00000025 Ry
[tb_dev] Currently allocated     2.41E+01 Mbytes, locked:    0 /   6
[tb_pin] Currently allocated     0.00E+00 Mbytes, locked:    0 /   0

     iteration # 29     ecut=    90.00 Ry     beta= 0.20
     Davidson diagonalization with overlap

---- Real-time Memory Report at c_bands before calling an iterative solver
         10714 MiB given to the printing process from OS
         -1871 MiB allocation reported by mallinfo(arena+hblkhd)
        464030 MiB available memory on the node where the printing process lives
     GPU memory used/free/total (MiB): 31717 / 33251 / 64969
------------------
     ethr =  1.78E-11,  avg # of iterations =  2.0

     negative rho (up, down):  4.114E-02 0.000E+00

     total cpu time spent up to now is      159.2 secs

[...]
     atom  143 type  1   force =     0.00000446   -0.00001370    0.00003958
     atom  144 type  1   force =     0.00001170    0.00000170    0.00001186
     atom  145 type  1   force =     0.00000157   -0.00000880    0.00002763
     atom  146 type  1   force =    -0.00002636    0.00000498    0.00000273
     atom  147 type  1   force =     0.00001559    0.00001220   -0.00002364
     atom  148 type  1   force =     0.00000646   -0.00003515    0.00001050
     atom  149 type  1   force =    -0.00001995   -0.00001590    0.00001692
     atom  150 type  4   force =     0.00000861   -0.00001566    0.00002379
     atom  151 type  2   force =     0.00000260    0.00000253   -0.00000229
     atom  152 type  2   force =     0.00000033    0.00000280   -0.00000113
     atom  153 type  2   force =     0.00000058   -0.00000248    0.00000064
     atom  154 type  2   force =     0.00000266   -0.00000469   -0.00000691
     atom  155 type  2   force =     0.00000221   -0.00000571   -0.00000867
     atom  156 type  2   force =     0.00000295   -0.00001026   -0.00000367
     atom  157 type  2   force =     0.00000178   -0.00000776   -0.00000339
     atom  158 type  2   force =    -0.00000124    0.00000225   -0.00000622
     atom  159 type  2   force =    -0.00000643    0.00000528   -0.00000485
     atom  160 type  2   force =     0.00000515   -0.00000413   -0.00000032
     atom  161 type  2   force =    -0.00000347   -0.00000361   -0.00000703
     atom  162 type  2   force =    -0.00000145   -0.00000516   -0.00000292
     atom  163 type  2   force =     0.00000096    0.00000022    0.00000656
     atom  164 type  2   force =    -0.00000019   -0.00000102   -0.00000376
     atom  165 type  3   force =    -0.00002786   -0.00001748    0.00003600
     atom  166 type  3   force =     0.00000486   -0.00002166   -0.00000335
     atom  167 type  1   force =    -0.00002930    0.00000170   -0.00000349
     atom  168 type  1   force =    -0.00000846   -0.00000376    0.00003645
     atom  169 type  1   force =     0.00000975   -0.00000911    0.00001472
     atom  170 type  1   force =    -0.00001090    0.00000751    0.00002347
     atom  171 type  1   force =    -0.00000008   -0.00001543    0.00001877
     atom  172 type  1   force =    -0.00000253    0.00002630    0.00000082
     atom  173 type  1   force =     0.00001440   -0.00002745   -0.00000383
     atom  174 type  1   force =    -0.00000418   -0.00000985    0.00001387
     atom  175 type  4   force =     0.00000463   -0.00000616    0.00002308
     atom  176 type  2   force =     0.00000358    0.00000770    0.00000205
     atom  177 type  2   force =     0.00000494    0.00000099    0.00000015
     atom  178 type  2   force =     0.00000079   -0.00000151   -0.00000423
     atom  179 type  2   force =     0.00000406    0.00000049   -0.00000097
     atom  180 type  2   force =     0.00000470    0.00000012   -0.00000089
     atom  181 type  2   force =    -0.00000379   -0.00000106    0.00000183
     atom  182 type  2   force =     0.00000745    0.00000170    0.00001196
     atom  183 type  2   force =     0.00000488    0.00001488    0.00000896
     atom  184 type  2   force =     0.00000412   -0.00000170    0.00001191
     atom  185 type  2   force =     0.00000642   -0.00000396    0.00000785
     atom  186 type  2   force =     0.00000536    0.00000371    0.00000783
     atom  187 type  2   force =    -0.00000610   -0.00000092    0.00001471
     atom  188 type  2   force =    -0.00000078   -0.00000645    0.00000508
     atom  189 type  2   force =     0.00000269    0.00000148   -0.00000141
     atom  190 type  3   force =    -0.00005220   -0.00001001    0.00000012
     atom  191 type  3   force =    -0.00001388    0.00001997    0.00004140
     atom  192 type  1   force =    -0.00001584   -0.00000462    0.00001682
     atom  193 type  1   force =    -0.00002234    0.00000195    0.00002634
     atom  194 type  1   force =     0.00005268    0.00000413    0.00003311
     atom  195 type  1   force =    -0.00002502    0.00004453    0.00002258
     atom  196 type  1   force =    -0.00003486   -0.00004394    0.00003761
     atom  197 type  1   force =    -0.00000931    0.00000167   -0.00000633
     atom  198 type  1   force =    -0.00001725   -0.00001038   -0.00000329
     atom  199 type  1   force =    -0.00001750   -0.00001171   -0.00003309
     atom  200 type  4   force =    -0.00002573   -0.00000051    0.00003315
     atom  201 type  2   force =     0.00000077    0.00000149   -0.00000251
     atom  202 type  2   force =    -0.00000274    0.00000074   -0.00000020
     atom  203 type  2   force =    -0.00000110   -0.00000132   -0.00000033
     atom  204 type  2   force =     0.00000885    0.00000568    0.00000457
     atom  205 type  2   force =     0.00000580    0.00000097   -0.00000396
     atom  206 type  2   force =    -0.00000048   -0.00000004   -0.00000464
     atom  207 type  2   force =    -0.00000102   -0.00001040    0.00000042
     atom  208 type  2   force =     0.00000421    0.00000378    0.00000213
     atom  209 type  2   force =    -0.00000572    0.00000191   -0.00000260
     atom  210 type  2   force =     0.00000355    0.00000500    0.00000010
     atom  211 type  2   force =     0.00000105    0.00000870   -0.00000383
     atom  212 type  2   force =     0.00001694   -0.00000349   -0.00000657
     atom  213 type  2   force =     0.00000181    0.00000098    0.00000533
     atom  214 type  2   force =     0.00000673    0.00000010   -0.00000166
     atom  215 type  3   force =    -0.00001104    0.00001329   -0.00000359
     atom  216 type  3   force =    -0.00001389   -0.00001125   -0.00002330
     atom  217 type  1   force =     0.00000020    0.00000592   -0.00000567
     atom  218 type  1   force =    -0.00000978   -0.00001057    0.00001672
     atom  219 type  1   force =     0.00001554   -0.00000223    0.00001327
     atom  220 type  1   force =    -0.00000545    0.00001150    0.00000847
     atom  221 type  1   force =    -0.00000515   -0.00001212    0.00000571
     atom  222 type  1   force =    -0.00000838   -0.00000498    0.00000759
     atom  223 type  1   force =     0.00000196   -0.00000006    0.00000178
     atom  224 type  1   force =    -0.00000755    0.00000627   -0.00000213
     atom  225 type  4   force =     0.00000729   -0.00000607    0.00001244
     atom  226 type  2   force =    -0.00001054   -0.00000312   -0.00000412
     atom  227 type  2   force =    -0.00000047   -0.00000975   -0.00000234
     atom  228 type  2   force =     0.00000626    0.00000053   -0.00000215
     atom  229 type  2   force =     0.00000384    0.00000099    0.00000548
     atom  230 type  2   force =     0.00000798    0.00000756    0.00000080
     atom  231 type  2   force =    -0.00000505    0.00000576   -0.00000110
     atom  232 type  2   force =     0.00000917   -0.00000912    0.00000875
     atom  233 type  2   force =     0.00000393   -0.00000315    0.00001187
     atom  234 type  2   force =    -0.00000470   -0.00000231    0.00001101
     atom  235 type  2   force =     0.00000807   -0.00000054    0.00000740
     atom  236 type  2   force =    -0.00000124    0.00000270    0.00000178
     atom  237 type  2   force =    -0.00000541    0.00000395    0.00000831
     atom  238 type  2   force =    -0.00000070    0.00000681    0.00000288
     atom  239 type  2   force =     0.00000225    0.00000653    0.00000380
     atom  240 type  3   force =    -0.00001368    0.00003102    0.00001520
     atom  241 type  3   force =    -0.00001331   -0.00005675    0.00003821
     atom  242 type  1   force =    -0.00005674    0.00000207   -0.00001460
     atom  243 type  1   force =     0.00000164    0.00000254    0.00008718
     atom  244 type  1   force =    -0.00000282   -0.00001924    0.00001651
     atom  245 type  1   force =    -0.00000974    0.00000120    0.00001868
     atom  246 type  1   force =    -0.00000121    0.00000133    0.00001720
     atom  247 type  1   force =     0.00004570    0.00005838   -0.00001260
     atom  248 type  1   force =     0.00003612   -0.00004271   -0.00001891
     atom  249 type  1   force =    -0.00000880   -0.00000469    0.00003371
     atom  250 type  4   force =     0.00000035   -0.00000155    0.00001543
     atom  251 type  2   force =     0.00000121    0.00000047    0.00000068
     atom  252 type  2   force =    -0.00000247   -0.00000043   -0.00000132
     atom  253 type  2   force =     0.00000148   -0.00000210   -0.00000158
     atom  254 type  2   force =     0.00000437   -0.00000230    0.00000084
     atom  255 type  2   force =     0.00000112    0.00000823    0.00000222
     atom  256 type  2   force =    -0.00000465   -0.00000244    0.00000580
     atom  257 type  2   force =     0.00000353   -0.00000669   -0.00000195
     atom  258 type  2   force =     0.00000716    0.00000604    0.00000279
     atom  259 type  2   force =    -0.00000599    0.00000068   -0.00000005
     atom  260 type  2   force =     0.00000528    0.00000457   -0.00000202
     atom  261 type  2   force =    -0.00000200    0.00000947   -0.00000332
     atom  262 type  2   force =     0.00000054   -0.00000085    0.00000301
     atom  263 type  2   force =     0.00000091   -0.00000171    0.00000630
     atom  264 type  2   force =     0.00000369    0.00000472   -0.00000189
     atom  265 type  3   force =    -0.00005901    0.00005485   -0.00001740
     atom  266 type  3   force =    -0.00000276   -0.00002367   -0.00002291
     atom  267 type  1   force =     0.00001163   -0.00000027    0.00000129
     atom  268 type  1   force =    -0.00001586    0.00000488    0.00001675
     atom  269 type  1   force =     0.00001199    0.00000022    0.00001410
     atom  270 type  1   force =    -0.00000956    0.00001740    0.00001357
     atom  271 type  1   force =    -0.00000230   -0.00000957    0.00001059
     atom  272 type  1   force =    -0.00001148    0.00001213   -0.00000194
     atom  273 type  1   force =     0.00000913   -0.00001635   -0.00000830
     atom  274 type  1   force =    -0.00000285   -0.00000279    0.00000475
     atom  275 type  4   force =    -0.00000136   -0.00000200    0.00001067
     atom  276 type  2   force =    -0.00001169   -0.00000611   -0.00000662
     atom  277 type  2   force =    -0.00000823   -0.00000329   -0.00000445
     atom  278 type  2   force =     0.00000273    0.00000398    0.00000017
     atom  279 type  2   force =    -0.00000091    0.00000003   -0.00000157
     atom  280 type  2   force =     0.00000720    0.00000498    0.00000502
     atom  281 type  2   force =    -0.00000639    0.00000478   -0.00000506
     atom  282 type  2   force =    -0.00000585   -0.00000392    0.00000841
     atom  283 type  2   force =    -0.00000213   -0.00000106    0.00001541
     atom  284 type  2   force =    -0.00001454    0.00000218    0.00001154
     atom  285 type  2   force =    -0.00000111    0.00000734    0.00000341
     atom  286 type  2   force =     0.00000175   -0.00000478    0.00000571
     atom  287 type  2   force =    -0.00000104   -0.00000002   -0.00000658
     atom  288 type  2   force =     0.00000454    0.00000728    0.00001163
     atom  289 type  2   force =    -0.00000135    0.00000375   -0.00000205
     atom  290 type  3   force =     0.00002463    0.00000661    0.00004062
     atom  291 type  3   force =     0.00003081   -0.00001325    0.00005295
     atom  292 type  1   force =    -0.00001034    0.00000877    0.00001116
     atom  293 type  1   force =     0.00000433   -0.00000030    0.00004331
     atom  294 type  1   force =    -0.00001432   -0.00000494    0.00002086
     atom  295 type  1   force =     0.00000045    0.00000720    0.00001427
     atom  296 type  1   force =    -0.00001102    0.00000081    0.00001958
     atom  297 type  1   force =     0.00002112    0.00000439    0.00001739
     atom  298 type  1   force =     0.00000540   -0.00002273    0.00001656
     atom  299 type  1   force =    -0.00000624   -0.00000196    0.00001790
     atom  300 type  4   force =     0.00001539   -0.00001077    0.00003192

     Total force =     1.047219     Total SCF correction =     0.000481


     Computing stress (Cartesian axis) and pressure


     negative rho (up, down):  4.114E-02 0.000E+00
          total   stress  (Ry/bohr**3)                   (kbar)     P=        7.35
   0.00006762  -0.00000591   0.00001558            9.95       -0.87        2.29
  -0.00000591   0.00006271   0.00000319           -0.87        9.23        0.47
   0.00001558   0.00000319   0.00001964            2.29        0.47        2.89

     kinetic stress (kbar)   5337.97     -0.20      1.79
                               -0.20   5336.82      0.51
                                1.79      0.51   5333.51

     local   stress (kbar)-655595.63     20.05    -61.40
                               20.05-655456.95    -37.98
                              -61.40    -37.98 649018.45

     nonloc. stress (kbar)    957.75      0.51     -0.19
                                0.51    957.63     -0.33
                               -0.19     -0.33    955.53

     hartree stress (kbar) 328416.38     -3.80     23.23
                               -3.80 328373.97      9.55
                               23.23      9.55-322473.90

     exc-cor stress (kbar)  -1264.58     -0.02      0.06
                               -0.02  -1264.91      0.10
                                0.06      0.10  -1265.97

     corecor stress (kbar)   -292.88     -0.00     -0.01
                               -0.00   -292.85     -0.01
                               -0.01     -0.01   -292.82

     ewald   stress (kbar) 322450.94    -17.40     38.81
                              -17.40 322355.50     28.61
                               38.81     28.61-331271.91

     hubbard stress (kbar)      0.00      0.00      0.00
                                0.00      0.00      0.00
                                0.00      0.00      0.00

     DFT-D   stress (kbar)      0.00      0.00      0.00
                                0.00      0.00      0.00
                                0.00      0.00      0.00

     XDM     stress (kbar)      0.00      0.00      0.00
                                0.00      0.00      0.00
                                0.00      0.00      0.00

     dft-nl  stress (kbar)      0.00      0.00      0.00
                                0.00      0.00      0.00
                                0.00      0.00      0.00

     TS-vdW  stress (kbar)      0.00      0.00      0.00
                                0.00      0.00      0.00
                                0.00      0.00      0.00

     MDB     stress (kbar)      0.00      0.00      0.00
                                0.00      0.00      0.00
                                0.00      0.00      0.00

     3D-RISM stress (kbar)      0.00      0.00      0.00
                                0.00      0.00      0.00
                                0.00      0.00      0.00


     Writing all to output data dir ./tmp/pwscf.save/
 
     init_run     :     29.64s CPU     34.34s WALL (       1 calls)
     electrons    :    117.64s CPU    124.61s WALL (       1 calls)
     forces       :      3.20s CPU      3.36s WALL (       1 calls)
     stress       :     80.99s CPU     83.86s WALL (       1 calls)

     Called by init_run:
     wfcinit      :      3.51s CPU      5.38s WALL (       1 calls)
                                        5.38s GPU  (       1 calls)
     wfcinit:atom :      0.01s CPU      0.01s WALL (       1 calls)
                                        0.01s GPU  (       1 calls)
     wfcinit:wfcr :      1.25s CPU      2.40s WALL (       1 calls)
                                        2.40s GPU  (       1 calls)
     potinit      :     16.54s CPU     16.80s WALL (       1 calls)
     hinit0       :      7.23s CPU      7.46s WALL (       1 calls)

     Called by electrons:
     c_bands      :     76.03s CPU     77.71s WALL (      29 calls)
     sum_band     :     15.86s CPU     16.32s WALL (      29 calls)
     v_of_rho     :      3.20s CPU      3.37s WALL (      30 calls)
     v_h          :      1.75s CPU      1.85s WALL (      30 calls)
     v_xc         :      1.58s CPU      1.64s WALL (      32 calls)
     newd         :      2.46s CPU      4.82s WALL (      30 calls)
                                        4.82s GPU  (      30 calls)
     PAW_pot      :      3.26s CPU      3.28s WALL (      30 calls)
     mix_rho      :      8.10s CPU      8.37s WALL (      29 calls)

     Called by c_bands:
     init_us_2    :      0.47s CPU      0.64s WALL (      59 calls)
     init_us_2:gp :      0.47s CPU      0.64s WALL (      59 calls)
     regterg      :     66.82s CPU     68.30s WALL (      32 calls)

     Called by sum_band:
     sum_band:wei :      0.01s CPU      0.01s WALL (      29 calls)
                                        0.01s GPU  (      29 calls)
     sum_band:loo :     12.49s CPU     12.86s WALL (      29 calls)
                                       12.86s GPU  (      29 calls)
     sum_band:buf :      1.87s CPU      1.90s WALL (      29 calls)
                                        1.89s GPU  (      29 calls)
     sum_band:ini :      0.24s CPU      0.47s WALL (      29 calls)
                                        0.47s GPU  (      29 calls)
     sum_band:cal :      2.11s CPU      2.17s WALL (      29 calls)
                                        2.17s GPU  (      29 calls)
     sum_band:bec :      0.20s CPU      0.20s WALL (      29 calls)
                                        0.20s GPU  (      29 calls)
     addusdens    :      2.07s CPU      2.14s WALL (      29 calls)
                                        2.14s GPU  (      29 calls)
     addusd:skk   :      0.44s CPU      0.45s WALL (     116 calls)
                                        0.45s GPU  (     116 calls)

     Called by *egterg:
     rdiaghg      :      6.76s CPU      6.86s WALL (     273 calls)
                                        6.86s GPU  (     273 calls)
     regterg:over :      4.12s CPU      4.20s WALL (     241 calls)
     regterg:upda :      2.26s CPU      2.31s WALL (     241 calls)
     regterg:last :      4.41s CPU      4.45s WALL (      69 calls)
     h_psi        :     42.38s CPU     44.56s WALL (     274 calls)
                                       44.55s GPU  (     274 calls)
     s_psi        :      1.14s CPU      5.36s WALL (     274 calls)
                                        5.22s GPU  (     274 calls)
     g_psi        :      0.00s CPU      0.22s WALL (     241 calls)
                                        0.21s GPU  (     241 calls)

     Called by h_psi:
     h_psi:calbec :      6.22s CPU      6.49s WALL (     274 calls)
                                        6.49s GPU  (     274 calls)
     vloc_psi     :     31.28s CPU     32.59s WALL (     274 calls)
                                       32.59s GPU  (     274 calls)
     add_vuspsi   :      0.52s CPU      5.26s WALL (     274 calls)
                                        5.24s GPU  (     274 calls)

     General routines
     calbec       :      8.80s CPU      9.21s WALL (     308 calls)
     fft          :      5.69s CPU      7.63s WALL (     348 calls)
                                        0.76s GPU  (     318 calls)
     ffts         :      2.94s CPU      3.44s WALL (      59 calls)
                                        0.04s GPU  (      29 calls)
     fftw         :     18.61s CPU     31.38s WALL (   16724 calls)
                                       31.18s GPU  (   16724 calls)
     interpolate  :      9.21s CPU     11.50s WALL (      30 calls)
 
     Parallel routines

     PAW routines
     PAW_pot      :      3.26s CPU      3.28s WALL (      30 calls)
 
     PWSCF        :   3m53.87s CPU   4m13.74s WALL

 
   This run was terminated on:  14:29:41  30Dec2023            

=------------------------------------------------------------------------------=
   JOB DONE.
=------------------------------------------------------------------------------=
