
     Program PWSCF v.7.2 starts on 30Dec2023 at 14:38:16 

     This program is part of the open-source Quantum ESPRESSO suite
     for quantum simulation of materials; please cite
         "P. Giannozzi et al., J. Phys.:Condens. Matter 21 395502 (2009);
         "P. Giannozzi et al., J. Phys.:Condens. Matter 29 465901 (2017);
         "P. Giannozzi et al., J. Chem. Phys. 152 154105 (2020);
          URL http://www.quantum-espresso.org", 
     in publications or presentations arising from this work. More details at
     http://www.quantum-espresso.org/quote

     Parallel version (MPI & OpenMP), running on       4 processor cores
     Number of MPI processes:                 4
     Threads/MPI process:                     1

     MPI processes distributed on     1 nodes
     503972 MiB available memory on the printing compute node when the environment starts
 
     Reading input from input_0018.inp

     Current dimensions of program PWSCF are:
     Max number of different atomic species (ntypx) = 10
     Max number of k-points (npk) =  40000
     Max angular momentum in pseudopotentials (lmaxx) =  4
     file O.pbe-n-kjpaw_psl.0.1.UPF: wavefunction(s)  2P renormalized

     gamma-point specific algorithms are used
 
     R & G space division:  proc/nbgrp/npool/nimage =       4
     Subspace diagonalization in iterative solution of the eigenvalue problem:
     a serial algorithm will be used

 
     Parallelization info
     --------------------
     sticks:   dense  smooth     PW     G-vecs:    dense   smooth      PW
     Min        6485    4324   1079              2728975  1485363  185656
     Max        6486    4326   1080              2728990  1485382  185664
     Sum       25943   17301   4319             10915929  5941483  742635
 
     Using Slab Decomposition
 


     bravais-lattice index     =            0
     lattice parameter (alat)  =      32.3352  a.u.
     unit-cell volume          =   51510.8153 (a.u.)^3
     number of atoms/cell      =          300
     number of atomic types    =            4
     number of electrons       =      1392.00
     number of Kohn-Sham states=          835
     kinetic-energy cutoff     =      90.0000  Ry
     charge density cutoff     =     540.0000  Ry
     scf convergence threshold =      1.0E-07
     mixing beta               =       0.2000
     number of iterations used =            8  plain     mixing
     Exchange-correlation= SLA  PW   PBX  PBC
                           (   1   4   3   4   0   0   0)

     GPU acceleration is ACTIVE.
     GPU-aware MPI enabled


     GPU used by master process:

        Device Number: 0
        Device name: NVIDIA PG506-243
        Compute capability : 80
        Ratio of single to double precision performance  : 2
        Memory Clock Rate (KHz): 1593000
        Memory Bus Width (bits): 4096
        Peak Memory Bandwidth (GB/s): ******

     celldm(1)=  32.335181  celldm(2)=   0.000000  celldm(3)=   0.000000
     celldm(4)=   0.000000  celldm(5)=   0.000000  celldm(6)=   0.000000

     crystal axes: (cart. coord. in units of alat)
               a(1) = (   1.000000   0.000000   0.000000 )  
               a(2) = (  -0.333333   0.577350   0.000000 )  
               a(3) = (   0.000000  -0.000000   2.638962 )  

     reciprocal axes: (cart. coord. in units 2 pi/alat)
               b(1) = (  1.000000  0.577350  0.000000 )  
               b(2) = ( -0.000000  1.732051  0.000000 )  
               b(3) = (  0.000000 -0.000000  0.378937 )  


     PseudoPot. # 1 for N  read from file:
     /leonardo_scratch/large/userexternal/uraucci0/Li_Cr/PPS/N.pbe-n-radius_5.UPF
     MD5 check sum: 16739722b17309cd8fe442a2ace49922
     Pseudo is Ultrasoft + core correction, Zval =  5.0
     Generated using "atomic" code by A. Dal Corso  v.5.1
     Using radial grid of 1085 points,  4 beta functions with: 
                l(1) =   0
                l(2) =   0
                l(3) =   1
                l(4) =   1
     Q(r) pseudized with 0 coefficients 


     PseudoPot. # 2 for Li read from file:
     /leonardo_scratch/large/userexternal/uraucci0/Li_Cr/PPS/li_pbe_v1.4.uspp.F.UPF
     MD5 check sum: e912e257baa3777c20ea3d68f190483c
     Pseudo is Ultrasoft, Zval =  3.0
     Generated by new atomic code, or converted to UPF format
     Using radial grid of  751 points,  5 beta functions with: 
                l(1) =   0
                l(2) =   0
                l(3) =   0
                l(4) =   1
                l(5) =   1
     Q(r) pseudized with 10 coefficients,  rinner =    1.150   1.150   1.150


     PseudoPot. # 3 for Cr read from file:
     /leonardo_scratch/large/userexternal/uraucci0/Li_Cr/PPS/cr_pbe_v1.5.uspp.F.UPF
     MD5 check sum: 0d52af634a40206e4dee301ad30da4bf
     Pseudo is Ultrasoft + core correction, Zval = 14.0
     Generated by new atomic code, or converted to UPF format
     Using radial grid of  857 points,  6 beta functions with: 
                l(1) =   0
                l(2) =   0
                l(3) =   1
                l(4) =   1
                l(5) =   2
                l(6) =   2
     Q(r) pseudized with  8 coefficients,  rinner =    0.950   0.950   0.950
                                                       0.950   0.950

     PseudoPot. # 4 for O  read from file:
     /leonardo_scratch/large/userexternal/uraucci0/Li_Cr/PPS/O.pbe-n-kjpaw_psl.0.1.UPF
     MD5 check sum: 0234752ac141de4415c5fc33072bef88
     Pseudo is Projector augmented-wave + core cor, Zval =  6.0
     Generated using "atomic" code by A. Dal Corso  v.5.0.99 svn rev. 10869
     Shape of augmentation charge: BESSEL
     Using radial grid of 1095 points,  4 beta functions with: 
                l(1) =   0
                l(2) =   0
                l(3) =   1
                l(4) =   1
     Q(r) pseudized with 0 coefficients 


     atomic species   valence    mass     pseudopotential
        N              5.00    14.00674     N ( 1.00)
        Li             3.00     6.94100     Li( 1.00)
        Cr            14.00    51.99610     Cr( 1.00)
        O              6.00    15.99940     O ( 1.00)

     No symmetry found


                                    s                        frac. trans.

      isym =  1     identity                                     

 cryst.   s( 1) = (     1          0          0      )
                  (     0          1          0      )
                  (     0          0          1      )

 cart.    s( 1) = (  1.0000000  0.0000000  0.0000000 )
                  (  0.0000000  1.0000000  0.0000000 )
                  (  0.0000000  0.0000000  1.0000000 )


   Cartesian axes

     site n.     atom                  positions (alat units)
         1           Li  tau(   1) = (   0.2593273   0.0873080   0.8766270  )
         2           Li  tau(   2) = (   0.1280588   0.1809300   0.8766270  )
         3           Li  tau(   3) = (   0.1126144   0.0204373   0.8766270  )
         4           Li  tau(   4) = (  -0.0809629   0.1901345   1.2957072  )
         5           Li  tau(   5) = (   0.0504086   0.0966814   1.2954910  )
         6           Li  tau(   6) = (   0.0664314   0.2478616   1.2777715  )
         7           Li  tau(   7) = (   0.0669942   0.0904568   1.0336250  )
         8           Li  tau(   8) = (   0.2214985   0.0127904   1.0336250  )
         9           Li  tau(   9) = (   0.2115073   0.1854282   1.0336250  )
        10           Li  tau(  10) = (   0.0914766   0.1922794   1.1189559  )
        11           Li  tau(  11) = (  -0.0588491   0.2798363   1.1149760  )
        12           Li  tau(  12) = (  -0.0448127   0.1033187   1.1329176  )
        13           Li  tau(  13) = (   0.0000000   0.0000000   0.9626942  )
        14           Li  tau(  14) = (   1.0180561  -0.0200949   1.1984835  )
        15           Cr  tau(  15) = (   0.1742378   0.0941123   1.2028257  )
        16           Cr  tau(  16) = (  -0.0000000   0.1924500   0.9478909  )
        17           N   tau(  17) = (   0.2705423   0.0756231   1.2403804  )
        18           N   tau(  18) = (   0.1670699   0.0892698   1.1020545  )
        19           N   tau(  19) = (  -0.0969339   0.1982778   0.9168466  )
        20           N   tau(  20) = (   0.0434200   0.1055885   0.9168466  )
        21           N   tau(  21) = (   0.0535141   0.2734837   0.9168466  )
        22           N   tau(  22) = (   0.1224484   0.0039282   1.2314622  )
        23           N   tau(  23) = (   0.1188583   0.1705302   1.2360615  )
        24           N   tau(  24) = (  -0.0000000   0.1924500   1.0497374  )
        25           O   tau(  25) = (  -0.0076509  -0.0043788   1.0793265  )
        26           Li  tau(  26) = (   0.2640494   0.0942333   1.3644699  )
        27           Li  tau(  27) = (   0.1465148   0.1679267   1.3892433  )
        28           Li  tau(  28) = (   0.1218792   0.0085188   1.3569426  )
        29           Li  tau(  29) = (  -0.1054787   0.2014202   1.7889969  )
        30           Li  tau(  30) = (   0.0485578   0.1076323   1.7873313  )
        31           Li  tau(  31) = (   0.0470558   0.2788656   1.7924801  )
        32           Li  tau(  32) = (   0.0635777   0.0943613   1.5435414  )
        33           Li  tau(  33) = (   0.2058834   0.0222917   1.5324725  )
        34           Li  tau(  34) = (   0.2056748   0.1902806   1.5322913  )
        35           Li  tau(  35) = (   0.0922422   0.2061453   1.6071903  )
        36           Li  tau(  36) = (  -0.0762087   0.2698906   1.6257105  )
        37           Li  tau(  37) = (  -0.0307695   0.1239364   1.6482925  )
        38           Li  tau(  38) = (   0.6943061   0.5745086   1.4674209  )
        39           Li  tau(  39) = (   1.0087054  -0.0003243   1.6976290  )
        40           Cr  tau(  40) = (   0.1662576   0.0980122   1.7054076  )
        41           Cr  tau(  41) = (   0.0026209   0.1866076   1.4496839  )
        42           N   tau(  42) = (   0.2653573   0.0827372   1.7338512  )
        43           N   tau(  43) = (   0.1648836   0.1048528   1.5935559  )
        44           N   tau(  44) = (  -0.0876516   0.2068512   1.4157642  )
        45           N   tau(  45) = (   0.0448997   0.0977252   1.4142798  )
        46           N   tau(  46) = (   0.0624351   0.2672777   1.4136077  )
        47           N   tau(  47) = (   0.1109050   0.0185257   1.7356629  )
        48           N   tau(  48) = (   0.1277368   0.1853189   1.7454519  )
        49           N   tau(  49) = (   0.0018534   0.1764060   1.5558142  )
        50           O   tau(  50) = (  -0.3339388   0.5756628   1.5690454  )
        51           Li  tau(  51) = (   0.0926606   0.3759836   0.8766270  )
        52           Li  tau(  52) = (  -0.0386079   0.4696050   0.8766270  )
        53           Li  tau(  53) = (  -0.0540524   0.3091127   0.8766270  )
        54           Li  tau(  54) = (  -0.2608374   0.4803489   1.2851702  )
        55           Li  tau(  55) = (  -0.1281512   0.4017646   1.2448044  )
        56           Li  tau(  56) = (  -0.1169263   0.5504674   1.2501051  )
        57           Li  tau(  57) = (  -0.0996725   0.3791318   1.0336250  )
        58           Li  tau(  58) = (   0.0548319   0.3014656   1.0336250  )
        59           Li  tau(  59) = (   0.0448406   0.4741032   1.0336250  )
        60           Li  tau(  60) = (  -0.0626718   0.5109058   1.1217143  )
        61           Li  tau(  61) = (  -0.2225919   0.5690858   1.1055435  )
        62           Li  tau(  62) = (  -0.2111210   0.3940228   1.1220416  )
        63           Li  tau(  63) = (  -0.1666667   0.2886750   0.9626942  )
        64           Li  tau(  64) = (   0.8394112   0.2778072   1.1993718  )
        65           Cr  tau(  65) = (   0.0042568   0.3884211   1.1994536  )
        66           Cr  tau(  66) = (  -0.1666667   0.4811250   0.9478909  )
        67           N   tau(  67) = (   0.0969526   0.3788454   1.2384343  )
        68           N   tau(  68) = (   0.0056062   0.3845260   1.1011194  )
        69           N   tau(  69) = (  -0.2636006   0.4869528   0.9168466  )
        70           N   tau(  70) = (  -0.1232467   0.3942641   0.9168466  )
        71           N   tau(  71) = (  -0.1131527   0.5621587   0.9168466  )
        72           N   tau(  72) = (  -0.0496171   0.3046156   1.2343901  )
        73           N   tau(  73) = (  -0.0321157   0.4759295   1.2390479  )
        74           N   tau(  74) = (  -0.1666667   0.4811250   1.0497374  )
        75           O   tau(  75) = (   0.8420879   0.2861135   1.0680355  )
        76           Li  tau(  76) = (   0.0929096   0.3814479   1.3693790  )
        77           Li  tau(  77) = (  -0.0324708   0.4783853   1.3611621  )
        78           Li  tau(  78) = (  -0.0310696   0.3217630   1.3693848  )
        79           Li  tau(  79) = (  -0.2704815   0.4808048   1.7941281  )
        80           Li  tau(  80) = (  -0.1274808   0.4080149   1.7843099  )
        81           Li  tau(  81) = (  -0.1137768   0.5598087   1.7740475  )
        82           Li  tau(  82) = (  -0.0980840   0.3757749   1.5388368  )
        83           Li  tau(  83) = (   0.0220717   0.2972975   1.5300121  )
        84           Li  tau(  84) = (   0.0427402   0.4751488   1.5207841  )
        85           Li  tau(  85) = (  -0.0570006   0.4876249   1.6090780  )
        86           Li  tau(  86) = (  -0.2220198   0.5525806   1.6244482  )
        87           Li  tau(  87) = (  -0.1821409   0.4242740   1.6509048  )
        88           Li  tau(  88) = (   0.8351567   0.2924404   1.4568547  )
        89           Li  tau(  89) = (   0.8356067   0.3031265   1.6979505  )
        90           Cr  tau(  90) = (  -0.0041605   0.3878028   1.6937719  )
        91           Cr  tau(  91) = (  -0.1555575   0.4743347   1.4492105  )
        92           N   tau(  92) = (   0.0910459   0.3925296   1.7260785  )
        93           N   tau(  93) = (  -0.0043699   0.3735383   1.5955838  )
        94           N   tau(  94) = (  -0.2489013   0.4777003   1.4044616  )
        95           N   tau(  95) = (  -0.1066621   0.3899032   1.4322682  )
        96           N   tau(  96) = (  -0.0971209   0.5442550   1.4071674  )
        97           N   tau(  97) = (  -0.0641481   0.3198631   1.7394441  )
        98           N   tau(  98) = (  -0.0635286   0.4678617   1.7231038  )
        99           N   tau(  99) = (  -0.1586777   0.4876886   1.5519804  )
       100           O   tau( 100) = (   0.8305047   0.2926251   1.5712895  )
       101           Li  tau( 101) = (   0.5926583   0.0873080   0.8766270  )
       102           Li  tau( 102) = (   0.4613921   0.1809300   0.8766270  )
       103           Li  tau( 103) = (   0.4459477   0.0204373   0.8766270  )
       104           Li  tau( 104) = (   0.2278581   0.2064690   1.2744929  )
       105           Li  tau( 105) = (   0.3694293   0.1266533   1.2856377  )
       106           Li  tau( 106) = (   0.3802995   0.2733527   1.2844221  )
       107           Li  tau( 107) = (   0.4003275   0.0904568   1.0336250  )
       108           Li  tau( 108) = (   0.5548318   0.0127904   1.0336250  )
       109           Li  tau( 109) = (   0.5448406   0.1854282   1.0336250  )
       110           Li  tau( 110) = (   0.4254802   0.2120835   1.1153500  )
       111           Li  tau( 111) = (   0.2662678   0.2811851   1.1105987  )
       112           Li  tau( 112) = (   0.3072618   0.1070887   1.1248001  )
       113           Li  tau( 113) = (   0.3333333   0.0000000   0.9626942  )
       114           Li  tau( 114) = (   0.0102608   0.5810412   1.2022822  )
       115           Cr  tau( 115) = (   0.4993068   0.1007332   1.2122407  )
       116           Cr  tau( 116) = (   0.3333333   0.1924500   0.9478909  )
       117           N   tau( 117) = (   0.6030551   0.0775797   1.2340628  )
       118           N   tau( 118) = (   0.4947490   0.0939551   1.1133046  )
       119           N   tau( 119) = (   0.2363994   0.1982778   0.9168466  )
       120           N   tau( 120) = (   0.3767532   0.1055885   0.9168466  )
       121           N   tau( 121) = (   0.3868473   0.2734837   0.9168466  )
       122           N   tau( 122) = (   0.4458671   0.0239133   1.2482876  )
       123           N   tau( 123) = (   0.4587851   0.1880190   1.2530330  )
       124           N   tau( 124) = (   0.3333333   0.1924500   1.0497374  )
       125           O   tau( 125) = (   0.3292506   0.0008163   1.0675738  )
       126           Li  tau( 126) = (   0.6711690  -0.0274140   1.4686950  )
       127           Li  tau( 127) = (   0.4685723   0.1750975   1.3872213  )
       128           Li  tau( 128) = (   0.6106817   0.0748487   1.3849245  )
       129           Li  tau( 129) = (   0.2606791   0.1937059   1.7634520  )
       130           Li  tau( 130) = (   0.3690740   0.0910482   1.7723410  )
       131           Li  tau( 131) = (   0.3878981   0.2841358   1.7984411  )
       132           Li  tau( 132) = (   0.4181996   0.0792669   1.5467089  )
       133           Li  tau( 133) = (   0.0660649   0.5050651   1.7721306  )
       134           Li  tau( 134) = (   0.5484745   0.1951693   1.5538914  )
       135           Li  tau( 135) = (   0.4187717   0.1894607   1.6261839  )
       136           Li  tau( 136) = (   0.2801910   0.2643065   1.6409113  )
       137           Li  tau( 137) = (   0.2883647   0.1022363   1.6091072  )
       138           Li  tau( 138) = (   0.4455778   0.0367658   1.3795829  )
       139           Li  tau( 139) = (   0.1251280   0.5626420   1.6375625  )
       140           Cr  tau( 140) = (   0.4973046   0.1014807   1.7100596  )
       141           Cr  tau( 141) = (   0.3344484   0.1865135   1.4514254  )
       142           N   tau( 142) = (   0.5958492   0.1018711   1.7468429  )
       143           N   tau( 143) = (   0.5045777   0.1021206   1.6096975  )
       144           N   tau( 144) = (   0.2461995   0.2009545   1.4116967  )
       145           N   tau( 145) = (   0.3761168   0.1064237   1.4108084  )
       146           N   tau( 146) = (   0.3890453   0.2627169   1.4209305  )
       147           N   tau( 147) = (   0.4474035   0.0204544   1.7429039  )
       148           N   tau( 148) = (   0.4576893   0.1874953   1.7476903  )
       149           N   tau( 149) = (   0.3358089   0.1923805   1.5495959  )
       150           O   tau( 150) = (   0.3364430  -0.0024097   1.5723824  )
       151           Li  tau( 151) = (   0.4259940   0.3759836   0.8766270  )
       152           Li  tau( 152) = (   0.2947255   0.4696050   0.8766270  )
       153           Li  tau( 153) = (   0.2792811   0.3091127   0.8766270  )
       154           Li  tau( 154) = (   0.0865815   0.4921618   1.2595785  )
       155           Li  tau( 155) = (   0.2100936   0.3848918   1.2850650  )
       156           Li  tau( 156) = (   0.2275887   0.5532223   1.2911722  )
       157           Li  tau( 157) = (   0.2336608   0.3791318   1.0336250  )
       158           Li  tau( 158) = (   0.3881652   0.3014656   1.0336250  )
       159           Li  tau( 159) = (   0.3781739   0.4741032   1.0336250  )
       160           Li  tau( 160) = (   0.2562731   0.4879241   1.1175416  )
       161           Li  tau( 161) = (   0.1043642   0.5612026   1.1079279  )
       162           Li  tau( 162) = (   0.1219505   0.3931643   1.1098974  )
       163           Li  tau( 163) = (   0.1666667   0.2886750   0.9626942  )
       164           Li  tau( 164) = (   0.1668507   0.2996469   1.1968062  )
       165           Cr  tau( 165) = (   0.3295445   0.3819604   1.1986646  )
       166           Cr  tau( 166) = (   0.1666667   0.4811250   0.9478909  )
       167           N   tau( 167) = (   0.4190920   0.3774954   1.2410116  )
       168           N   tau( 168) = (   0.3372285   0.3872254   1.0950181  )
       169           N   tau( 169) = (   0.0697328   0.4869528   0.9168466  )
       170           N   tau( 170) = (   0.2100866   0.3942641   0.9168466  )
       171           N   tau( 171) = (   0.2201806   0.5621587   0.9168466  )
       172           N   tau( 172) = (   0.2827847   0.2947185   1.2253550  )
       173           N   tau( 173) = (   0.2789222   0.4604138   1.2393226  )
       174           N   tau( 174) = (   0.1666667   0.4811250   1.0497374  )
       175           O   tau( 175) = (   0.1632835   0.2854999   1.0738973  )
       176           Li  tau( 176) = (   0.4285812   0.3595450   1.3862511  )
       177           Li  tau( 177) = (   0.2835391   0.4561803   1.3721550  )
       178           Li  tau( 178) = (   0.2932118   0.3139102   1.4008733  )
       179           Li  tau( 179) = (   0.3189420   0.0061027   1.6803828  )
       180           Li  tau( 180) = (   0.2157455   0.3970343   1.7759410  )
       181           Li  tau( 181) = (   0.2206260   0.5798852   1.7757832  )
       182           Li  tau( 182) = (   0.2434089   0.3700599   1.5440732  )
       183           Li  tau( 183) = (   0.3886906   0.2838676   1.5456044  )
       184           Li  tau( 184) = (   0.3861004   0.4601210   1.5388894  )
       185           Li  tau( 185) = (   0.2706790   0.5033311   1.6232326  )
       186           Li  tau( 186) = (   0.3293388   0.0060078   1.4575618  )
       187           Li  tau( 187) = (   0.1134799   0.3745587   1.6081839  )
       188           Li  tau( 188) = (   0.1754247   0.2957167   1.4394565  )
       189           Li  tau( 189) = (   0.1587794   0.2955431   1.7184109  )
       190           Cr  tau( 190) = (   0.3405135   0.3871769   1.7158979  )
       191           Cr  tau( 191) = (   0.1684515   0.4829624   1.4511566  )
       192           N   tau( 192) = (   0.4363241   0.3730667   1.7512202  )
       193           N   tau( 193) = (   0.3415198   0.3799161   1.6143670  )
       194           N   tau( 194) = (   0.0757055   0.4921466   1.4077636  )
       195           N   tau( 195) = (   0.2065047   0.3942326   1.4059811  )
       196           N   tau( 196) = (   0.2252435   0.5563151   1.4124097  )
       197           N   tau( 197) = (   0.2827438   0.3129757   1.7467143  )
       198           N   tau( 198) = (   0.2962613   0.4760394   1.7470649  )
       199           N   tau( 199) = (   0.1535243   0.4823055   1.5544232  )
       200           O   tau( 200) = (   0.1816032   0.2924311   1.5987455  )
       201           Li  tau( 201) = (   0.9259927   0.0873080   0.8766270  )
       202           Li  tau( 202) = (   0.7947266   0.1809300   0.8766270  )
       203           Li  tau( 203) = (   0.7792805   0.0204373   0.8766270  )
       204           Li  tau( 204) = (   0.5715058   0.1857637   1.2696539  )
       205           Li  tau( 205) = (   0.6965619   0.1221334   1.2687364  )
       206           Li  tau( 206) = (   0.7301543   0.2703757   1.2815877  )
       207           Li  tau( 207) = (   0.7336608   0.0904568   1.0336250  )
       208           Li  tau( 208) = (   0.8881634   0.0127904   1.0336250  )
       209           Li  tau( 209) = (   0.8781757   0.1854282   1.0336250  )
       210           Li  tau( 210) = (   0.7727525   0.1975683   1.1271260  )
       211           Li  tau( 211) = (   0.6025116   0.2611372   1.1211416  )
       212           Li  tau( 212) = (   0.6290091   0.0859457   1.1233682  )
       213           Li  tau( 213) = (   0.6666690   0.0000000   0.9626942  )
       214           Li  tau( 214) = (   0.6659560  -0.0203140   1.1986004  )
       215           Cr  tau( 215) = (   0.8344145   0.0874996   1.2109140  )
       216           Cr  tau( 216) = (   0.6666690   0.1924500   0.9478909  )
       217           N   tau( 217) = (   0.9362960   0.0798198   1.2437408  )
       218           N   tau( 218) = (   0.8248183   0.1028418   1.1077818  )
       219           N   tau( 219) = (   0.5697327   0.1982778   0.9168466  )
       220           N   tau( 220) = (   0.7100854   0.1055885   0.9168466  )
       221           N   tau( 221) = (   0.7201783   0.2734837   0.9168466  )
       222           N   tau( 222) = (   0.7864045   0.0048179   1.2400590  )
       223           N   tau( 223) = (   0.7990981   0.1785853   1.2449622  )
       224           N   tau( 224) = (   0.6666690   0.1924500   1.0497374  )
       225           O   tau( 225) = (   0.6727644  -0.0006151   1.0769596  )
       226           Li  tau( 226) = (   0.9400538   0.0658885   1.3714654  )
       227           Li  tau( 227) = (   0.7984552   0.1938503   1.3775901  )
       228           Li  tau( 228) = (   0.7777727   0.0306713   1.3741069  )
       229           Li  tau( 229) = (   0.5834572   0.2050828   1.7754677  )
       230           Li  tau( 230) = (   0.7167828   0.1177368   1.7877989  )
       231           Li  tau( 231) = (   0.7410420   0.2789263   1.7852333  )
       232           Li  tau( 232) = (   0.7404926   0.1077965   1.5383108  )
       233           Li  tau( 233) = (   0.9166362   0.0402188   1.5420511  )
       234           Li  tau( 234) = (   0.8695555   0.1717704   1.5211465  )
       235           Li  tau( 235) = (   0.7690648   0.2000036   1.6228820  )
       236           Li  tau( 236) = (   0.6149480   0.2720133   1.6153371  )
       237           Li  tau( 237) = (   0.6223701   0.1210090   1.6371359  )
       238           Li  tau( 238) = (   0.5630581   0.0277840   1.5288900  )
       239           Li  tau( 239) = (   0.4339976   0.5573021   1.6019247  )
       240           Cr  tau( 240) = (   0.8363839   0.1052934   1.7115031  )
       241           Cr  tau( 241) = (   0.6618534   0.1970617   1.4532079  )
       242           N   tau( 242) = (   0.9395220   0.0964857   1.7434532  )
       243           N   tau( 243) = (   0.8376930   0.0996111   1.6104631  )
       244           N   tau( 244) = (   0.5696088   0.1967274   1.4089850  )
       245           N   tau( 245) = (   0.7083263   0.1096543   1.4216026  )
       246           N   tau( 246) = (   0.7185068   0.2726187   1.4109077  )
       247           N   tau( 247) = (   0.7842422   0.0184207   1.7454695  )
       248           N   tau( 248) = (   0.7864337   0.1895583   1.7369487  )
       249           N   tau( 249) = (   0.6702748   0.1967665   1.5588005  )
       250           O   tau( 250) = (   0.6675807  -0.0058171   1.5712428  )
       251           Li  tau( 251) = (   0.7593284   0.3759836   0.8766270  )
       252           Li  tau( 252) = (   0.6280565   0.4696050   0.8766270  )
       253           Li  tau( 253) = (   0.6126161   0.3091127   0.8766270  )
       254           Li  tau( 254) = (   0.4117172   0.4816358   1.2835397  )
       255           Li  tau( 255) = (   0.5341031   0.3801043   1.2784903  )
       256           Li  tau( 256) = (   0.5514784   0.5365425   1.2769650  )
       257           Li  tau( 257) = (   0.5669941   0.3791318   1.0336250  )
       258           Li  tau( 258) = (   0.7214991   0.3014656   1.0336250  )
       259           Li  tau( 259) = (   0.7115055   0.4741032   1.0336250  )
       260           Li  tau( 260) = (   0.5978830   0.4888224   1.1230234  )
       261           Li  tau( 261) = (   0.4486805   0.5663443   1.1210130  )
       262           Li  tau( 262) = (   0.4492082   0.3808336   1.1290137  )
       263           Li  tau( 263) = (   0.5000000   0.2886750   0.9626942  )
       264           Li  tau( 264) = (   0.5089410   0.2707083   1.1966484  )
       265           Cr  tau( 265) = (   0.6707307   0.3757796   1.1983607  )
       266           Cr  tau( 266) = (   0.5000000   0.4811250   0.9478909  )
       267           N   tau( 267) = (   0.7642785   0.3726459   1.2374817  )
       268           N   tau( 268) = (   0.6736703   0.3840146   1.1018675  )
       269           N   tau( 269) = (   0.4030661   0.4869528   0.9168466  )
       270           N   tau( 270) = (   0.5434199   0.3942641   0.9168466  )
       271           N   tau( 271) = (   0.5535140   0.5621587   0.9168466  )
       272           N   tau( 272) = (   0.6127856   0.2980397   1.2358687  )
       273           N   tau( 273) = (   0.6266422   0.4660833   1.2362018  )
       274           N   tau( 274) = (   0.5000000   0.4811250   1.0497374  )
       275           O   tau( 275) = (   0.5010601   0.2790537   1.0769479  )
       276           Li  tau( 276) = (   0.7827928   0.3741672   1.3594672  )
       277           Li  tau( 277) = (   0.6458111   0.4590498   1.3594906  )
       278           Li  tau( 278) = (   0.6085369   0.3164127   1.3695601  )
       279           Li  tau( 279) = (   0.3306771   0.5970940   1.6974712  )
       280           Li  tau( 280) = (   0.5447652   0.3829995   1.8051619  )
       281           Li  tau( 281) = (   0.5624082   0.5473811   1.7734397  )
       282           Li  tau( 282) = (   0.5577171   0.3835313   1.5489706  )
       283           Li  tau( 283) = (   0.7326147   0.3189987   1.5430855  )
       284           Li  tau( 284) = (   0.7166718   0.4568816   1.5277037  )
       285           Li  tau( 285) = (   0.5965096   0.4974303   1.6222391  )
       286           Li  tau( 286) = (   0.4031613   0.4922868   1.7873547  )
       287           Li  tau( 287) = (   0.4561867   0.3806197   1.6173709  )
       288           Li  tau( 288) = (   0.5000894   0.2979456   1.4572170  )
       289           Li  tau( 289) = (   0.4906516   0.2851632   1.6968050  )
       290           Cr  tau( 290) = (   0.6672008   0.3897045   1.7091070  )
       291           Cr  tau( 291) = (   0.4996949   0.4793858   1.4434481  )
       292           N   tau( 292) = (   0.7671889   0.3888863   1.7421149  )
       293           N   tau( 293) = (   0.6589313   0.3953722   1.6126430  )
       294           N   tau( 294) = (   0.4007155   0.4725756   1.4093473  )
       295           N   tau( 295) = (   0.5444561   0.3927119   1.4026791  )
       296           N   tau( 296) = (   0.5468814   0.5559866   1.4069161  )
       297           N   tau( 297) = (   0.6186181   0.3015901   1.7432136  )
       298           N   tau( 298) = (   0.6305169   0.4733604   1.7472578  )
       299           N   tau( 299) = (   0.5007334   0.4829946   1.5438277  )
       300           O   tau( 300) = (   0.5065910   0.2872788   1.5716636  )

   Crystallographic axes

     site n.     atom                  positions (cryst. coord.)
         1           Li  tau(   1) = (  0.3097346  0.1512218  0.3321863  )
         2           Li  tau(   2) = (  0.2325188  0.3133799  0.3321863  )
         3           Li  tau(   3) = (  0.1244139  0.0353984  0.3321863  )
         4           Li  tau(   4) = (  0.0288113  0.3293227  0.4909912  )
         5           Li  tau(   5) = (  0.1062277  0.1674572  0.4909093  )
         6           Li  tau(   6) = (  0.2095343  0.4293089  0.4841947  )
         7           Li  tau(   7) = (  0.1192194  0.1566758  0.3916786  )
         8           Li  tau(   8) = (  0.2288830  0.0221536  0.3916786  )
         9           Li  tau(   9) = (  0.3185643  0.3211711  0.3916786  )
        10           Li  tau(  10) = (  0.2024891  0.3330376  0.4240136  )
        11           Li  tau(  11) = (  0.1027144  0.4846906  0.4225055  )
        12           Li  tau(  12) = (  0.0148384  0.1789532  0.4293042  )
        13           Li  tau(  13) = (  0.0000000  0.0000000  0.3648003  )
        14           Li  tau(  14) = (  1.0064543 -0.0348053  0.4541496  )
        15           Cr  tau(  15) = (  0.2285736  0.1630073  0.4557950  )
        16           Cr  tau(  16) = (  0.1111111  0.3333332  0.3591908  )
        17           N   tau(  17) = (  0.3142033  0.1309831  0.4700259  )
        18           N   tau(  18) = (  0.2186099  0.1546199  0.4176091  )
        19           N   tau(  19) = (  0.0175419  0.3434273  0.3474270  )
        20           N   tau(  20) = (  0.1043816  0.1828847  0.3474270  )
        21           N   tau(  21) = (  0.2114100  0.4736876  0.3474270  )
        22           N   tau(  22) = (  0.1247164  0.0068038  0.4666464  )
        23           N   tau(  23) = (  0.2173140  0.2953670  0.4683893  )
        24           N   tau(  24) = (  0.1111111  0.3333332  0.3977842  )
        25           O   tau(  25) = ( -0.0101790 -0.0075844  0.4089966  )
        26           Li  tau(  26) = (  0.3184550  0.1632169  0.5170479  )
        27           Li  tau(  27) = (  0.2434673  0.2908575  0.5264355  )
        28           Li  tau(  28) = (  0.1267975  0.0147549  0.5141956  )
        29           Li  tau(  29) = (  0.0108114  0.3488701  0.6779169  )
        30           Li  tau(  30) = (  0.1106993  0.1864245  0.6772857  )
        31           Li  tau(  31) = (  0.2080589  0.4830093  0.6792368  )
        32           Li  tau(  32) = (  0.1180572  0.1634386  0.5849047  )
        33           Li  tau(  33) = (  0.2187536  0.0386104  0.5807103  )
        34           Li  tau(  34) = (  0.3155334  0.3295758  0.5806417  )
        35           Li  tau(  35) = (  0.2112602  0.3570541  0.6090237  )
        36           Li  tau(  36) = (  0.0796128  0.4674643  0.6160417  )
        37           Li  tau(  37) = (  0.0407852  0.2146641  0.6245988  )
        38           Li  tau(  38) = (  1.0259988  0.9950781  0.5560599  )
        39           Li  tau(  39) = (  1.0085182 -0.0005617  0.6432942  )
        40           Cr  tau(  40) = (  0.2228449  0.1697620  0.6462418  )
        41           Cr  tau(  41) = (  0.1103588  0.3232138  0.5493386  )
        42           N   tau(  42) = (  0.3131257  0.1433051  0.6570202  )
        43           N   tau(  43) = (  0.2254204  0.1816103  0.6038571  )
        44           N   tau(  44) = (  0.0317740  0.3582768  0.5364853  )
        45           N   tau(  45) = (  0.1013213  0.1692650  0.5359228  )
        46           N   tau(  46) = (  0.2167480  0.4629386  0.5356681  )
        47           N   tau(  47) = (  0.1216008  0.0320875  0.6577067  )
        48           N   tau(  48) = (  0.2347308  0.3209818  0.6614161  )
        49           N   tau(  49) = (  0.1037015  0.3055441  0.5895553  )
        50           O   tau(  50) = ( -0.0015797  0.9970772  0.5945691  )
        51           Li  tau(  51) = (  0.3097348  0.6512226  0.3321863  )
        52           Li  tau(  52) = (  0.2325186  0.8133797  0.3321863  )
        53           Li  tau(  53) = (  0.1244139  0.5353989  0.3321863  )
        54           Li  tau(  54) = (  0.0164921  0.8319887  0.4869984  )
        55           Li  tau(  55) = (  0.1038077  0.6958766  0.4717023  )
        56           Li  tau(  56) = (  0.2008862  0.9534375  0.4737109  )
        57           Li  tau(  57) = (  0.1192194  0.6566756  0.3916786  )
        58           Li  tau(  58) = (  0.2288831  0.5221537  0.3916786  )
        59           Li  tau(  59) = (  0.3185642  0.8211709  0.3916786  )
        60           Li  tau(  60) = (  0.2322998  0.8849148  0.4250589  )
        61           Li  tau(  61) = (  0.1059699  0.9856855  0.4189312  )
        62           Li  tau(  62) = (  0.0163682  0.6824675  0.4251829  )
        63           Li  tau(  63) = ( -0.0000001  0.4999998  0.3648003  )
        64           Li  tau(  64) = (  0.9998033  0.4811761  0.4544862  )
        65           Cr  tau(  65) = (  0.2285119  0.6727651  0.4545172  )
        66           Cr  tau(  66) = (  0.1111110  0.8333330  0.3591908  )
        67           N   tau(  67) = (  0.3156791  0.6561796  0.4692884  )
        68           N   tau(  68) = (  0.2276123  0.6660185  0.4172547  )
        69           N   tau(  69) = (  0.0175418  0.8434271  0.3474270  )
        70           N   tau(  70) = (  0.1043818  0.6828855  0.3474270  )
        71           N   tau(  71) = (  0.2114098  0.9736874  0.3474270  )
        72           N   tau(  72) = (  0.1262528  0.5276097  0.4677559  )
        73           N   tau(  73) = (  0.2426624  0.8243342  0.4695209  )
        74           N   tau(  74) = (  0.1111110  0.8333330  0.3977842  )
        75           O   tau(  75) = (  1.0072756  0.4955631  0.4047180  )
        76           Li  tau(  76) = (  0.3131386  0.6606871  0.5189082  )
        77           Li  tau(  77) = (  0.2437250  0.8285876  0.5157945  )
        78           Li  tau(  78) = (  0.1547004  0.5573099  0.5189104  )
        79           Li  tau(  79) = (  0.0071113  0.8327783  0.6798613  )
        80           Li  tau(  80) = (  0.1080867  0.7067026  0.6761408  )
        81           Li  tau(  81) = (  0.2094289  0.9696171  0.6722520  )
        82           Li  tau(  82) = (  0.1188697  0.6508612  0.5831220  )
        83           Li  tau(  83) = (  0.1937165  0.5149344  0.5797780  )
        84           Li  tau(  84) = (  0.3170675  0.8229818  0.5762812  )
        85           Li  tau(  85) = (  0.2245298  0.8445911  0.6097390  )
        86           Li  tau(  86) = (  0.0970128  0.9570977  0.6155633  )
        87           Li  tau(  87) = (  0.0628138  0.7348641  0.6255887  )
        88           Li  tau(  88) = (  1.0039972  0.5065217  0.5520559  )
        89           Li  tau(  89) = (  1.0106168  0.5250305  0.6434160  )
        90           Cr  tau(  90) = (  0.2197376  0.6716942  0.6418326  )
        91           Cr  tau(  91) = (  0.1182998  0.8215717  0.5491593  )
        92           N   tau(  92) = (  0.3176730  0.6798812  0.6540748  )
        93           N   tau(  93) = (  0.2112926  0.6469874  0.6046255  )
        94           N   tau(  94) = (  0.0268991  0.8274012  0.5322023  )
        95           N   tau(  95) = (  0.1184486  0.6753322  0.5427392  )
        96           N   tau(  96) = (  0.2171049  0.9426773  0.5332276  )
        97           N   tau(  97) = (  0.1205250  0.5540191  0.6591395  )
        98           N   tau(  98) = (  0.2065915  0.8103602  0.6529475  )
        99           N   tau(  99) = (  0.1228895  0.8447015  0.5881026  )
       100           O   tau( 100) = (  0.9994519  0.5068415  0.5954195  )
       101           Li  tau( 101) = (  0.6430655  0.1512218  0.3321863  )
       102           Li  tau( 102) = (  0.5658521  0.3133799  0.3321863  )
       103           Li  tau( 103) = (  0.4577472  0.0353984  0.3321863  )
       104           Li  tau( 104) = (  0.3470631  0.3576148  0.4829523  )
       105           Li  tau( 105) = (  0.4425526  0.2193700  0.4871755  )
       106           Li  tau( 106) = (  0.5381198  0.4734608  0.4867149  )
       107           Li  tau( 107) = (  0.4525527  0.1566758  0.3916786  )
       108           Li  tau( 108) = (  0.5622164  0.0221536  0.3916786  )
       109           Li  tau( 109) = (  0.6518976  0.3211711  0.3916786  )
       110           Li  tau( 110) = (  0.5479267  0.3673394  0.4226472  )
       111           Li  tau( 111) = (  0.4286101  0.4870269  0.4208468  )
       112           Li  tau( 112) = (  0.3690896  0.1854832  0.4262282  )
       113           Li  tau( 113) = (  0.3333333  0.0000000  0.3648003  )
       114           Li  tau( 114) = (  0.3457251  1.0063929  0.4555890  )
       115           Cr  tau( 115) = (  0.5574652  0.1744750  0.4593627  )
       116           Cr  tau( 116) = (  0.4444444  0.3333332  0.3591908  )
       117           N   tau( 117) = (  0.6478457  0.1343720  0.4676319  )
       118           N   tau( 118) = (  0.5489940  0.1627350  0.4218721  )
       119           N   tau( 119) = (  0.3508752  0.3434273  0.3474270  )
       120           N   tau( 120) = (  0.4377148  0.1828847  0.3474270  )
       121           N   tau( 121) = (  0.5447432  0.4736876  0.3474270  )
       122           N   tau( 122) = (  0.4596734  0.0414190  0.4730222  )
       123           N   tau( 123) = (  0.5673379  0.3256584  0.4748204  )
       124           N   tau( 124) = (  0.4444444  0.3333332  0.3977842  )
       125           O   tau( 125) = (  0.3297218  0.0014138  0.4045431  )
       126           Li  tau( 126) = (  0.6553415 -0.0474824  0.5565427  )
       127           Li  tau( 127) = (  0.5696649  0.3032777  0.5256693  )
       128           Li  tau( 128) = (  0.6538957  0.1296418  0.5247989  )
       129           Li  tau( 129) = (  0.3725152  0.3355085  0.6682370  )
       130           Li  tau( 130) = (  0.4216407  0.1577002  0.6716053  )
       131           Li  tau( 131) = (  0.5519440  0.4921377  0.6814956  )
       132           Li  tau( 132) = (  0.4639644  0.1372944  0.5861050  )
       133           Li  tau( 133) = (  0.3576644  0.8747984  0.6715256  )
       134           Li  tau( 134) = (  0.6611556  0.3380432  0.5888267  )
       135           Li  tau( 135) = (  0.5281569  0.3281556  0.6162210  )
       136           Li  tau( 136) = (  0.4327885  0.4577923  0.6218018  )
       137           Li  tau( 137) = (  0.3473909  0.1770785  0.6097500  )
       138           Li  tau( 138) = (  0.4668045  0.0636802  0.5227748  )
       139           Li  tau( 139) = (  0.4499695  0.9745245  0.6205328  )
       140           Cr  tau( 140) = (  0.5558945  0.1757697  0.6480046  )
       141           Cr  tau( 141) = (  0.4421320  0.3230508  0.5499986  )
       142           N   tau( 142) = (  0.6546645  0.1764459  0.6619432  )
       143           N   tau( 143) = (  0.5635371  0.1768781  0.6099737  )
       144           N   tau( 144) = (  0.3622206  0.3480633  0.5349439  )
       145           N   tau( 145) = (  0.4375605  0.1843312  0.5346073  )
       146           N   tau( 146) = (  0.5407250  0.4550391  0.5384429  )
       147           N   tau( 147) = (  0.4592129  0.0354281  0.6604505  )
       148           N   tau( 148) = (  0.5659397  0.3247514  0.6622643  )
       149           N   tau( 149) = (  0.4468798  0.3332127  0.5871990  )
       150           O   tau( 150) = (  0.3350518 -0.0041737  0.5958337  )
       151           Li  tau( 151) = (  0.6430682  0.6512226  0.3321863  )
       152           Li  tau( 152) = (  0.5658520  0.8133797  0.3321863  )
       153           Li  tau( 153) = (  0.4577474  0.5353989  0.3321863  )
       154           Li  tau( 154) = (  0.3707312  0.8524492  0.4773007  )
       155           Li  tau( 155) = (  0.4323110  0.6666522  0.4869585  )
       156           Li  tau( 156) = (  0.5469918  0.9582092  0.4892727  )
       157           Li  tau( 157) = (  0.4525527  0.6566756  0.3916786  )
       158           Li  tau( 158) = (  0.5622164  0.5221537  0.3916786  )
       159           Li  tau( 159) = (  0.6518976  0.8211709  0.3916786  )
       160           Li  tau( 160) = (  0.5379763  0.8451094  0.4234777  )
       161           Li  tau( 161) = (  0.4283746  0.9720313  0.4198347  )
       162           Li  tau( 162) = (  0.3489440  0.6809805  0.4205810  )
       163           Li  tau( 163) = (  0.3333333  0.4999998  0.3648003  )
       164           Li  tau( 164) = (  0.3398520  0.5190036  0.4535140  )
       165           Cr  tau( 165) = (  0.5500695  0.6615748  0.4542182  )
       166           Cr  tau( 166) = (  0.4444443  0.8333330  0.3591908  )
       167           N   tau( 167) = (  0.6370391  0.6538413  0.4702650  )
       168           N   tau( 168) = (  0.5607932  0.6706941  0.4149427  )
       169           N   tau( 169) = (  0.3508751  0.8434271  0.3474270  )
       170           N   tau( 170) = (  0.4377151  0.6828855  0.3474270  )
       171           N   tau( 171) = (  0.5447431  0.9736874  0.3474270  )
       172           N   tau( 172) = (  0.4529405  0.5104674  0.4643322  )
       173           N   tau( 173) = (  0.5447423  0.7974601  0.4696250  )
       174           N   tau( 174) = (  0.4444443  0.8333330  0.3977842  )
       175           O   tau( 175) = (  0.3281169  0.4945003  0.4069393  )
       176           Li  tau( 176) = (  0.6361646  0.6227503  0.5253017  )
       177           Li  tau( 177) = (  0.5469150  0.7901275  0.5199601  )
       178           Li  tau( 178) = (  0.4744480  0.5437084  0.5308425  )
       179           Li  tau( 179) = (  0.3224654  0.0105702  0.6367590  )
       180           Li  tau( 180) = (  0.4449733  0.6876836  0.6729695  )
       181           Li  tau( 181) = (  0.5554229  1.0043907  0.6729097  )
       182           Li  tau( 182) = (  0.4570631  0.6409625  0.5851063  )
       183           Li  tau( 183) = (  0.5525816  0.4916731  0.5856865  )
       184           Li  tau( 184) = (  0.6517514  0.7969530  0.5831419  )
       185           Li  tau( 185) = (  0.5612774  0.8717951  0.6151027  )
       186           Li  tau( 186) = (  0.3328074  0.0104057  0.5523239  )
       187           Li  tau( 187) = (  0.3297315  0.6487548  0.6094001  )
       188           Li  tau( 188) = (  0.3461568  0.5121963  0.5454631  )
       189           Li  tau( 189) = (  0.3294112  0.5118957  0.6511692  )
       190           Cr  tau( 190) = (  0.5640502  0.6706101  0.6502170  )
       191           Cr  tau( 191) = (  0.4472900  0.8365155  0.5498967  )
       192           N   tau( 192) = (  0.6517143  0.6461705  0.6636019  )
       193           N   tau( 193) = (  0.5608645  0.6580340  0.6117432  )
       194           N   tau( 194) = (  0.3598465  0.8524228  0.5334535  )
       195           N   tau( 195) = (  0.4341150  0.6828309  0.5327781  )
       196           N   tau( 196) = (  0.5464321  0.9635660  0.5352141  )
       197           N   tau( 197) = (  0.4634404  0.5420898  0.6618944  )
       198           N   tau( 198) = (  0.5711028  0.8245245  0.6620273  )
       199           N   tau( 199) = (  0.4319835  0.8353777  0.5890283  )
       200           O   tau( 200) = (  0.3504384  0.5065055  0.6058236  )
       201           Li  tau( 201) = (  0.9764000  0.1512218  0.3321863  )
       202           Li  tau( 202) = (  0.8991866  0.3133799  0.3321863  )
       203           Li  tau( 203) = (  0.7910799  0.0353984  0.3321863  )
       204           Li  tau( 204) = (  0.6787566  0.3217521  0.4811187  )
       205           Li  tau( 205) = (  0.7670757  0.2115413  0.4807710  )
       206           Li  tau( 206) = (  0.8862558  0.4683045  0.4856408  )
       207           Li  tau( 207) = (  0.7858861  0.1566758  0.3916786  )
       208           Li  tau( 208) = (  0.8955479  0.0221536  0.3916786  )
       209           Li  tau( 209) = (  0.9852327  0.3211711  0.3916786  )
       210           Li  tau( 210) = (  0.8868186  0.3421984  0.4271096  )
       211           Li  tau( 211) = (  0.7532792  0.4523030  0.4248419  )
       212           Li  tau( 212) = (  0.6786298  0.1488623  0.4256856  )
       213           Li  tau( 213) = (  0.6666690  0.0000000  0.3648003  )
       214           Li  tau( 214) = (  0.6542277 -0.0351848  0.4541939  )
       215           Cr  tau( 215) = (  0.8849324  0.1515538  0.4588600  )
       216           Cr  tau( 216) = (  0.7777800  0.3333332  0.3591908  )
       217           N   tau( 217) = (  0.9823800  0.1382520  0.4712992  )
       218           N   tau( 218) = (  0.8841940  0.1781272  0.4197794  )
       219           N   tau( 219) = (  0.6842085  0.3434273  0.3474270  )
       220           N   tau( 220) = (  0.7710469  0.1828847  0.3474270  )
       221           N   tau( 221) = (  0.8780741  0.4736876  0.3474270  )
       222           N   tau( 222) = (  0.7891862  0.0083449  0.4699041  )
       223           N   tau( 223) = (  0.9022043  0.3093188  0.4717621  )
       224           N   tau( 224) = (  0.7777800  0.3333332  0.3977842  )
       225           O   tau( 225) = (  0.6724093 -0.0010654  0.4080997  )
       226           Li  tau( 226) = (  0.9780946  0.1141221  0.5196988  )
       227           Li  tau( 227) = (  0.9103747  0.3357585  0.5220197  )
       228           Li  tau( 228) = (  0.7954807  0.0531243  0.5206998  )
       229           Li  tau( 229) = (  0.7018618  0.3552138  0.6727901  )
       230           Li  tau( 230) = (  0.7847582  0.2039262  0.6774629  )
       231           Li  tau( 231) = (  0.9020802  0.4831146  0.6764907  )
       232           Li  tau( 232) = (  0.8027290  0.1867090  0.5829227  )
       233           Li  tau( 233) = (  0.9398566  0.0696611  0.5843400  )
       234           Li  tau( 234) = (  0.9687272  0.2975150  0.5764185  )
       235           Li  tau( 235) = (  0.8845370  0.3464164  0.6149698  )
       236           Li  tau( 236) = (  0.7719949  0.4711408  0.6121108  )
       237           Li  tau( 237) = (  0.6922347  0.2095937  0.6203711  )
       238           Li  tau( 238) = (  0.5790992  0.0481233  0.5793528  )
       239           Li  tau( 239) = (  0.7557561  0.9652756  0.6070283  )
       240           Cr  tau( 240) = (  0.8971751  0.1823735  0.6485516  )
       241           Cr  tau( 241) = (  0.7756270  0.3413208  0.5506740  )
       242           N   tau( 242) = (  0.9952280  0.1671181  0.6606587  )
       243           N   tau( 243) = (  0.8952035  0.1725315  0.6102638  )
       244           N   tau( 244) = (  0.6831894  0.3407418  0.5339163  )
       245           N   tau( 245) = (  0.7716352  0.1899269  0.5386976  )
       246           N   tau( 246) = (  0.8759033  0.4721895  0.5346449  )
       247           N   tau( 247) = (  0.7948774  0.0319056  0.6614227  )
       248           N   tau( 248) = (  0.8958753  0.3283246  0.6581939  )
       249           N   tau( 249) = (  0.7838780  0.3408096  0.5906870  )
       250           O   tau( 250) = (  0.6642222 -0.0100755  0.5954018  )
       251           Li  tau( 251) = (  0.9764026  0.6512226  0.3321863  )
       252           Li  tau( 252) = (  0.8991830  0.8133797  0.3321863  )
       253           Li  tau( 253) = (  0.7910824  0.5353989  0.3321863  )
       254           Li  tau( 254) = (  0.6897898  0.8342177  0.4863805  )
       255           Li  tau( 255) = (  0.7535564  0.6583599  0.4844671  )
       256           Li  tau( 256) = (  0.8612514  0.9293188  0.4838891  )
       257           Li  tau( 257) = (  0.7858860  0.6566756  0.3916786  )
       258           Li  tau( 258) = (  0.8955503  0.5221537  0.3916786  )
       259           Li  tau( 259) = (  0.9852291  0.8211709  0.3916786  )
       260           Li  tau( 260) = (  0.8801047  0.8466652  0.4255550  )
       261           Li  tau( 261) = (  0.7756595  0.9809370  0.4247932  )
       262           Li  tau( 262) = (  0.6690826  0.6596232  0.4278249  )
       263           Li  tau( 263) = (  0.6666666  0.4999998  0.3648003  )
       264           Li  tau( 264) = (  0.6652345  0.4688804  0.4534542  )
       265           Cr  tau( 265) = (  0.8876871  0.6508693  0.4541031  )
       266           Cr  tau( 266) = (  0.7777776  0.8333330  0.3591908  )
       267           N   tau( 267) = (  0.9794257  0.6454417  0.4689274  )
       268           N   tau( 268) = (  0.8953812  0.6651328  0.4175382  )
       269           N   tau( 269) = (  0.6842084  0.8434271  0.3474270  )
       270           N   tau( 270) = (  0.7710484  0.6828855  0.3474270  )
       271           N   tau( 271) = (  0.8780764  0.9736874  0.3474270  )
       272           N   tau( 272) = (  0.7848589  0.5162199  0.4683162  )
       273           N   tau( 273) = (  0.8957355  0.8072799  0.4684424  )
       274           N   tau( 274) = (  0.7777776  0.8333330  0.3977842  )
       275           O   tau( 275) = (  0.6621719  0.4833353  0.4080953  )
       276           Li  tau( 276) = (  0.9988183  0.6480766  0.5151523  )
       277           Li  tau( 277) = (  0.9108436  0.7950976  0.5151611  )
       278           Li  tau( 278) = (  0.7912178  0.5480428  0.5189768  )
       279           Li  tau( 279) = (  0.6754095  1.0341971  0.6432344  )
       280           Li  tau( 280) = (  0.7658901  0.6633746  0.6840424  )
       281           Li  tau( 281) = (  0.8784388  0.9480918  0.6720217  )
       282           Li  tau( 282) = (  0.7791490  0.6642957  0.5869621  )
       283           Li  tau( 283) = (  0.9167887  0.5525220  0.5847320  )
       284           Li  tau( 284) = (  0.9804525  0.7913422  0.5789032  )
       285           Li  tau( 285) = (  0.8837011  0.8615745  0.6147262  )
       286           Li  tau( 286) = (  0.6873833  0.8526658  0.6772946  )
       287           Li  tau( 287) = (  0.6759376  0.6592527  0.6128815  )
       288           Li  tau( 288) = (  0.6721084  0.5160570  0.5521932  )
       289           Li  tau( 289) = (  0.6552907  0.4939172  0.6429820  )
       290           Cr  tau( 290) = (  0.8921968  0.6749880  0.6476436  )
       291           Cr  tau( 291) = (  0.7764684  0.8303205  0.5469757  )
       292           N   tau( 292) = (  0.9917125  0.6735709  0.6601516  )
       293           N   tau( 293) = (  0.8871995  0.6848047  0.6110899  )
       294           N   tau( 294) = (  0.6735572  0.8185249  0.5340537  )
       295           N   tau( 295) = (  0.7711884  0.6801970  0.5315268  )
       296           N   tau( 296) = (  0.8678804  0.9629971  0.5331324  )
       297           N   tau( 297) = (  0.7927412  0.5223693  0.6605679  )
       298           N   tau( 298) = (  0.9038116  0.8198843  0.6621004  )
       299           N   tau( 299) = (  0.7795905  0.8365711  0.5850132  )
       300           O   tau( 300) = (  0.6724515  0.4975815  0.5955613  )

     number of k points=     1  Gaussian smearing, width (Ry)=  0.0147
                       cart. coord. in units 2pi/alat
        k(    1) = (   0.0000000   0.0000000   0.0000000), wk =   2.0000000

                       cryst. coord.
        k(    1) = (   0.0000000   0.0000000   0.0000000), wk =   2.0000000

     Dense  grid:  5457965 G-vectors     FFT dimensions: ( 240, 160, 640)

     Smooth grid:  2970742 G-vectors     FFT dimensions: ( 200, 135, 540)

     Dynamical RAM for                 wfc:    1182.84 MB

     Dynamical RAM for     wfc (w. buffer):    1182.84 MB

     Dynamical RAM for           str. fact:      83.28 MB

     Dynamical RAM for           local pot:       0.00 MB

     Dynamical RAM for          nlocal pot:    3977.76 MB

     Dynamical RAM for                qrad:       7.46 MB

     Dynamical RAM for          rho,v,vnew:     203.09 MB

     Dynamical RAM for               rhoin:      67.70 MB

     Dynamical RAM for            rho*nmix:     333.13 MB

     Dynamical RAM for           G-vectors:      83.74 MB

     Dynamical RAM for          h,s,v(r/c):      63.83 MB

     Dynamical RAM for          <psi|beta>:      17.89 MB

     Dynamical RAM for                 psi:    2365.69 MB

     Dynamical RAM for                hpsi:    2365.69 MB

     Dynamical RAM for                spsi:    2365.69 MB

     Dynamical RAM for      wfcinit/wfcrot:    4336.08 MB

     Dynamical RAM for           addusdens:    7370.47 MB

     Dynamical RAM for          addusforce:   14335.60 MB

     Dynamical RAM for         addusstress:    4184.93 MB

     Estimated static dynamical RAM per process >       5.81 GB

     Estimated max dynamical RAM per process >      20.13 GB

     Estimated total dynamical RAM >      80.52 GB

     Check: negative core charge=   -0.000002

     Initial potential from superposition of free atoms

     starting charge    1292.2742, renormalised to    1392.0000

     negative rho (up, down):  2.565E-02 0.000E+00
     Starting wfcs are 1512 randomized atomic wfcs
     Checking if some PAW data can be deallocated... 

     total cpu time spent up to now is       35.2 secs

     per-process dynamical memory:  1708.4 Mb

     Self-consistent Calculation
[tb_dev] Currently allocated     1.26E+02 Mbytes, locked:    0 /  11
[tb_pin] Currently allocated     0.00E+00 Mbytes, locked:    0 /   0

     iteration #  1     ecut=    90.00 Ry     beta= 0.20
     Davidson diagonalization with overlap

---- Real-time Memory Report at c_bands before calling an iterative solver
         10171 MiB given to the printing process from OS
          1746 MiB allocation reported by mallinfo(arena+hblkhd)
        465815 MiB available memory on the node where the printing process lives
     GPU memory used/free/total (MiB): 16367 / 48601 / 64969
------------------
     ethr =  1.00E-02,  avg # of iterations =  3.0

     negative rho (up, down):  4.024E-02 0.000E+00

     total cpu time spent up to now is       39.0 secs

     total energy              =   -9072.11429279 Ry
     estimated scf accuracy    <     236.50681411 Ry
[tb_dev] Currently allocated     2.41E+01 Mbytes, locked:    0 /   6
[tb_pin] Currently allocated     0.00E+00 Mbytes, locked:    0 /   0

     iteration #  2     ecut=    90.00 Ry     beta= 0.20
     Davidson diagonalization with overlap

---- Real-time Memory Report at c_bands before calling an iterative solver
         10502 MiB given to the printing process from OS
          2013 MiB allocation reported by mallinfo(arena+hblkhd)
        464858 MiB available memory on the node where the printing process lives
     GPU memory used/free/total (MiB): 31249 / 33719 / 64969
------------------
     ethr =  1.00E-02,  avg # of iterations =  3.0

     negative rho (up, down):  7.330E-02 0.000E+00

     total cpu time spent up to now is       42.6 secs

     total energy              =   -9055.75658651 Ry
     estimated scf accuracy    <      60.26097983 Ry
[tb_dev] Currently allocated     2.41E+01 Mbytes, locked:    0 /   6
[tb_pin] Currently allocated     0.00E+00 Mbytes, locked:    0 /   0

     iteration #  3     ecut=    90.00 Ry     beta= 0.20
     Davidson diagonalization with overlap

---- Real-time Memory Report at c_bands before calling an iterative solver
         10537 MiB given to the printing process from OS
         -2047 MiB allocation reported by mallinfo(arena+hblkhd)
        464717 MiB available memory on the node where the printing process lives
     GPU memory used/free/total (MiB): 31249 / 33719 / 64969
------------------
     ethr =  4.33E-03,  avg # of iterations =  7.0

     negative rho (up, down):  5.288E-02 0.000E+00

     total cpu time spent up to now is       48.2 secs

     total energy              =   -9112.63236875 Ry
     estimated scf accuracy    <     743.10335450 Ry
[tb_dev] Currently allocated     2.41E+01 Mbytes, locked:    0 /   6
[tb_pin] Currently allocated     0.00E+00 Mbytes, locked:    0 /   0

     iteration #  4     ecut=    90.00 Ry     beta= 0.20
     Davidson diagonalization with overlap

---- Real-time Memory Report at c_bands before calling an iterative solver
         10572 MiB given to the printing process from OS
         -2012 MiB allocation reported by mallinfo(arena+hblkhd)
        464385 MiB available memory on the node where the printing process lives
     GPU memory used/free/total (MiB): 31249 / 33719 / 64969
------------------
     ethr =  4.33E-03,  avg # of iterations =  2.0

     negative rho (up, down):  4.450E-02 0.000E+00

     total cpu time spent up to now is       51.7 secs

     total energy              =   -9094.07762725 Ry
     estimated scf accuracy    <     646.92514549 Ry
[tb_dev] Currently allocated     2.41E+01 Mbytes, locked:    0 /   6
[tb_pin] Currently allocated     0.00E+00 Mbytes, locked:    0 /   0

     iteration #  5     ecut=    90.00 Ry     beta= 0.20
     Davidson diagonalization with overlap

---- Real-time Memory Report at c_bands before calling an iterative solver
         10596 MiB given to the printing process from OS
         -1989 MiB allocation reported by mallinfo(arena+hblkhd)
        464388 MiB available memory on the node where the printing process lives
     GPU memory used/free/total (MiB): 31249 / 33719 / 64969
------------------
     ethr =  4.33E-03,  avg # of iterations =  1.0

     negative rho (up, down):  4.029E-02 0.000E+00

     total cpu time spent up to now is       55.0 secs

     total energy              =   -9094.83751360 Ry
     estimated scf accuracy    <     167.61648140 Ry
[tb_dev] Currently allocated     2.41E+01 Mbytes, locked:    0 /   6
[tb_pin] Currently allocated     0.00E+00 Mbytes, locked:    0 /   0

     iteration #  6     ecut=    90.00 Ry     beta= 0.20
     Davidson diagonalization with overlap

---- Real-time Memory Report at c_bands before calling an iterative solver
         10619 MiB given to the printing process from OS
         -1965 MiB allocation reported by mallinfo(arena+hblkhd)
        464198 MiB available memory on the node where the printing process lives
     GPU memory used/free/total (MiB): 31249 / 33719 / 64969
------------------
     ethr =  4.33E-03,  avg # of iterations =  1.0

     negative rho (up, down):  3.209E-02 0.000E+00

     total cpu time spent up to now is       58.3 secs

     total energy              =   -9091.32783321 Ry
     estimated scf accuracy    <      22.16956015 Ry
[tb_dev] Currently allocated     2.41E+01 Mbytes, locked:    0 /   6
[tb_pin] Currently allocated     0.00E+00 Mbytes, locked:    0 /   0

     iteration #  7     ecut=    90.00 Ry     beta= 0.20
     Davidson diagonalization with overlap

---- Real-time Memory Report at c_bands before calling an iterative solver
         10643 MiB given to the printing process from OS
         -1942 MiB allocation reported by mallinfo(arena+hblkhd)
        464295 MiB available memory on the node where the printing process lives
     GPU memory used/free/total (MiB): 31249 / 33719 / 64969
------------------
     ethr =  1.59E-03,  avg # of iterations =  2.0

     negative rho (up, down):  2.453E-02 0.000E+00

     total cpu time spent up to now is       62.0 secs

     total energy              =   -9107.55559690 Ry
     estimated scf accuracy    <      32.41526900 Ry
[tb_dev] Currently allocated     2.41E+01 Mbytes, locked:    0 /   6
[tb_pin] Currently allocated     0.00E+00 Mbytes, locked:    0 /   0

     iteration #  8     ecut=    90.00 Ry     beta= 0.20
     Davidson diagonalization with overlap

---- Real-time Memory Report at c_bands before calling an iterative solver
         10666 MiB given to the printing process from OS
         -1918 MiB allocation reported by mallinfo(arena+hblkhd)
        464010 MiB available memory on the node where the printing process lives
     GPU memory used/free/total (MiB): 31249 / 33719 / 64969
------------------
     ethr =  1.59E-03,  avg # of iterations =  8.0

     negative rho (up, down):  3.159E-02 0.000E+00

     total cpu time spent up to now is       66.3 secs

     total energy              =   -9086.73173828 Ry
     estimated scf accuracy    <      91.77963225 Ry
[tb_dev] Currently allocated     2.41E+01 Mbytes, locked:    0 /   6
[tb_pin] Currently allocated     0.00E+00 Mbytes, locked:    0 /   0

     iteration #  9     ecut=    90.00 Ry     beta= 0.20
     Davidson diagonalization with overlap

---- Real-time Memory Report at c_bands before calling an iterative solver
         10690 MiB given to the printing process from OS
         -1895 MiB allocation reported by mallinfo(arena+hblkhd)
        463916 MiB available memory on the node where the printing process lives
     GPU memory used/free/total (MiB): 31405 / 33563 / 64969
------------------
     ethr =  1.59E-03,  avg # of iterations =  5.0

     negative rho (up, down):  3.329E-02 0.000E+00

     total cpu time spent up to now is       70.8 secs

     total energy              =   -9095.78235209 Ry
     estimated scf accuracy    <       1.21882663 Ry
[tb_dev] Currently allocated     2.41E+01 Mbytes, locked:    0 /   6
[tb_pin] Currently allocated     0.00E+00 Mbytes, locked:    0 /   0

     iteration # 10     ecut=    90.00 Ry     beta= 0.20
     Davidson diagonalization with overlap

---- Real-time Memory Report at c_bands before calling an iterative solver
         10713 MiB given to the printing process from OS
         -1871 MiB allocation reported by mallinfo(arena+hblkhd)
        463822 MiB available memory on the node where the printing process lives
     GPU memory used/free/total (MiB): 31407 / 33561 / 64969
------------------
     ethr =  8.76E-05,  avg # of iterations = 19.0

     negative rho (up, down):  3.217E-02 0.000E+00

     total cpu time spent up to now is       77.1 secs

     total energy              =   -9095.67690603 Ry
     estimated scf accuracy    <       8.00236907 Ry
[tb_dev] Currently allocated     2.41E+01 Mbytes, locked:    0 /   6
[tb_pin] Currently allocated     0.00E+00 Mbytes, locked:    0 /   0

     iteration # 11     ecut=    90.00 Ry     beta= 0.20
     Davidson diagonalization with overlap

---- Real-time Memory Report at c_bands before calling an iterative solver
         10713 MiB given to the printing process from OS
         -1871 MiB allocation reported by mallinfo(arena+hblkhd)
        463819 MiB available memory on the node where the printing process lives
     GPU memory used/free/total (MiB): 32255 / 32713 / 64969
------------------
     ethr =  8.76E-05,  avg # of iterations =  3.0

     negative rho (up, down):  3.305E-02 0.000E+00

     total cpu time spent up to now is       80.8 secs

     total energy              =   -9096.15200093 Ry
     estimated scf accuracy    <       0.63510300 Ry
[tb_dev] Currently allocated     2.41E+01 Mbytes, locked:    0 /   6
[tb_pin] Currently allocated     0.00E+00 Mbytes, locked:    0 /   0

     iteration # 12     ecut=    90.00 Ry     beta= 0.20
     Davidson diagonalization with overlap

---- Real-time Memory Report at c_bands before calling an iterative solver
         10713 MiB given to the printing process from OS
         -1871 MiB allocation reported by mallinfo(arena+hblkhd)
        463914 MiB available memory on the node where the printing process lives
     GPU memory used/free/total (MiB): 32255 / 32713 / 64969
------------------
     ethr =  4.56E-05,  avg # of iterations =  2.0

     negative rho (up, down):  3.527E-02 0.000E+00

     total cpu time spent up to now is       84.3 secs

     total energy              =   -9096.04015023 Ry
     estimated scf accuracy    <       0.69118833 Ry
[tb_dev] Currently allocated     2.41E+01 Mbytes, locked:    0 /   6
[tb_pin] Currently allocated     0.00E+00 Mbytes, locked:    0 /   0

     iteration # 13     ecut=    90.00 Ry     beta= 0.20
     Davidson diagonalization with overlap

---- Real-time Memory Report at c_bands before calling an iterative solver
         10713 MiB given to the printing process from OS
         -1871 MiB allocation reported by mallinfo(arena+hblkhd)
        463820 MiB available memory on the node where the printing process lives
     GPU memory used/free/total (MiB): 32255 / 32713 / 64969
------------------
     c_bands:  3 eigenvalues not converged
     ethr =  4.56E-05,  avg # of iterations = 20.0

     negative rho (up, down):  3.562E-02 0.000E+00

     total cpu time spent up to now is       88.8 secs

     total energy              =   -9096.08190700 Ry
     estimated scf accuracy    <       0.25899603 Ry
[tb_dev] Currently allocated     2.41E+01 Mbytes, locked:    0 /   6
[tb_pin] Currently allocated     0.00E+00 Mbytes, locked:    0 /   0

     iteration # 14     ecut=    90.00 Ry     beta= 0.20
     Davidson diagonalization with overlap

---- Real-time Memory Report at c_bands before calling an iterative solver
         10713 MiB given to the printing process from OS
         -1871 MiB allocation reported by mallinfo(arena+hblkhd)
        463820 MiB available memory on the node where the printing process lives
     GPU memory used/free/total (MiB): 32277 / 32691 / 64969
------------------
     ethr =  1.86E-05,  avg # of iterations = 28.0

     negative rho (up, down):  3.759E-02 0.000E+00

     total cpu time spent up to now is       96.2 secs

     total energy              =   -9095.83353886 Ry
     estimated scf accuracy    <       3.25388639 Ry
[tb_dev] Currently allocated     2.41E+01 Mbytes, locked:    0 /   6
[tb_pin] Currently allocated     0.00E+00 Mbytes, locked:    0 /   0

     iteration # 15     ecut=    90.00 Ry     beta= 0.20
     Davidson diagonalization with overlap

---- Real-time Memory Report at c_bands before calling an iterative solver
         10713 MiB given to the printing process from OS
         -1871 MiB allocation reported by mallinfo(arena+hblkhd)
        463821 MiB available memory on the node where the printing process lives
     GPU memory used/free/total (MiB): 32447 / 32521 / 64969
------------------
     ethr =  1.86E-05,  avg # of iterations =  5.0

     negative rho (up, down):  3.805E-02 0.000E+00

     total cpu time spent up to now is      100.7 secs

     total energy              =   -9096.05204020 Ry
     estimated scf accuracy    <       0.06844292 Ry
[tb_dev] Currently allocated     2.41E+01 Mbytes, locked:    0 /   6
[tb_pin] Currently allocated     0.00E+00 Mbytes, locked:    0 /   0

     iteration # 16     ecut=    90.00 Ry     beta= 0.20
     Davidson diagonalization with overlap

---- Real-time Memory Report at c_bands before calling an iterative solver
         10713 MiB given to the printing process from OS
         -1871 MiB allocation reported by mallinfo(arena+hblkhd)
        463821 MiB available memory on the node where the printing process lives
     GPU memory used/free/total (MiB): 32447 / 32521 / 64969
------------------
     ethr =  4.92E-06,  avg # of iterations = 18.0

     negative rho (up, down):  3.834E-02 0.000E+00

     total cpu time spent up to now is      105.6 secs

     total energy              =   -9096.05968025 Ry
     estimated scf accuracy    <       0.01207188 Ry
[tb_dev] Currently allocated     2.41E+01 Mbytes, locked:    0 /   6
[tb_pin] Currently allocated     0.00E+00 Mbytes, locked:    0 /   0

     iteration # 17     ecut=    90.00 Ry     beta= 0.20
     Davidson diagonalization with overlap

---- Real-time Memory Report at c_bands before calling an iterative solver
         10713 MiB given to the printing process from OS
         -1871 MiB allocation reported by mallinfo(arena+hblkhd)
        463820 MiB available memory on the node where the printing process lives
     GPU memory used/free/total (MiB): 32471 / 32497 / 64969
------------------
     ethr =  8.67E-07,  avg # of iterations =  5.0

     negative rho (up, down):  3.910E-02 0.000E+00

     total cpu time spent up to now is      109.5 secs

     total energy              =   -9096.05749000 Ry
     estimated scf accuracy    <       0.03805224 Ry
[tb_dev] Currently allocated     2.41E+01 Mbytes, locked:    0 /   6
[tb_pin] Currently allocated     0.00E+00 Mbytes, locked:    0 /   0

     iteration # 18     ecut=    90.00 Ry     beta= 0.20
     Davidson diagonalization with overlap

---- Real-time Memory Report at c_bands before calling an iterative solver
         10713 MiB given to the printing process from OS
         -1871 MiB allocation reported by mallinfo(arena+hblkhd)
        463820 MiB available memory on the node where the printing process lives
     GPU memory used/free/total (MiB): 32471 / 32497 / 64969
------------------
     ethr =  8.67E-07,  avg # of iterations =  3.0

     negative rho (up, down):  3.948E-02 0.000E+00

     total cpu time spent up to now is      113.3 secs

     total energy              =   -9096.06040312 Ry
     estimated scf accuracy    <       0.00196100 Ry
[tb_dev] Currently allocated     2.41E+01 Mbytes, locked:    0 /   6
[tb_pin] Currently allocated     0.00E+00 Mbytes, locked:    0 /   0

     iteration # 19     ecut=    90.00 Ry     beta= 0.20
     Davidson diagonalization with overlap

---- Real-time Memory Report at c_bands before calling an iterative solver
         10713 MiB given to the printing process from OS
         -1871 MiB allocation reported by mallinfo(arena+hblkhd)
        463821 MiB available memory on the node where the printing process lives
     GPU memory used/free/total (MiB): 32695 / 32273 / 64969
------------------
     ethr =  1.41E-07,  avg # of iterations =  5.0

     negative rho (up, down):  3.973E-02 0.000E+00

     total cpu time spent up to now is      117.2 secs

     total energy              =   -9096.06061067 Ry
     estimated scf accuracy    <       0.00077293 Ry
[tb_dev] Currently allocated     2.41E+01 Mbytes, locked:    0 /   6
[tb_pin] Currently allocated     0.00E+00 Mbytes, locked:    0 /   0

     iteration # 20     ecut=    90.00 Ry     beta= 0.20
     Davidson diagonalization with overlap

---- Real-time Memory Report at c_bands before calling an iterative solver
         10713 MiB given to the printing process from OS
         -1871 MiB allocation reported by mallinfo(arena+hblkhd)
        463821 MiB available memory on the node where the printing process lives
     GPU memory used/free/total (MiB): 32695 / 32273 / 64969
------------------
     ethr =  5.55E-08,  avg # of iterations =  2.0

     negative rho (up, down):  3.988E-02 0.000E+00

     total cpu time spent up to now is      120.9 secs

     total energy              =   -9096.06065640 Ry
     estimated scf accuracy    <       0.00022880 Ry
[tb_dev] Currently allocated     2.41E+01 Mbytes, locked:    0 /   6
[tb_pin] Currently allocated     0.00E+00 Mbytes, locked:    0 /   0

     iteration # 21     ecut=    90.00 Ry     beta= 0.20
     Davidson diagonalization with overlap

---- Real-time Memory Report at c_bands before calling an iterative solver
         10713 MiB given to the printing process from OS
         -1871 MiB allocation reported by mallinfo(arena+hblkhd)
        463820 MiB available memory on the node where the printing process lives
     GPU memory used/free/total (MiB): 32695 / 32273 / 64969
------------------
     ethr =  1.64E-08,  avg # of iterations =  4.0

     negative rho (up, down):  3.997E-02 0.000E+00

     total cpu time spent up to now is      124.8 secs

     total energy              =   -9096.06068147 Ry
     estimated scf accuracy    <       0.00010754 Ry
[tb_dev] Currently allocated     2.41E+01 Mbytes, locked:    0 /   6
[tb_pin] Currently allocated     0.00E+00 Mbytes, locked:    0 /   0

     iteration # 22     ecut=    90.00 Ry     beta= 0.20
     Davidson diagonalization with overlap

---- Real-time Memory Report at c_bands before calling an iterative solver
         10713 MiB given to the printing process from OS
         -1871 MiB allocation reported by mallinfo(arena+hblkhd)
        463820 MiB available memory on the node where the printing process lives
     GPU memory used/free/total (MiB): 32695 / 32273 / 64969
------------------
     ethr =  7.73E-09,  avg # of iterations =  2.0

     negative rho (up, down):  4.004E-02 0.000E+00

     total cpu time spent up to now is      128.4 secs

     total energy              =   -9096.06068660 Ry
     estimated scf accuracy    <       0.00004907 Ry
[tb_dev] Currently allocated     2.41E+01 Mbytes, locked:    0 /   6
[tb_pin] Currently allocated     0.00E+00 Mbytes, locked:    0 /   0

     iteration # 23     ecut=    90.00 Ry     beta= 0.20
     Davidson diagonalization with overlap

---- Real-time Memory Report at c_bands before calling an iterative solver
         10713 MiB given to the printing process from OS
         -1871 MiB allocation reported by mallinfo(arena+hblkhd)
        463820 MiB available memory on the node where the printing process lives
     GPU memory used/free/total (MiB): 32695 / 32273 / 64969
------------------
     ethr =  3.53E-09,  avg # of iterations =  2.0

     negative rho (up, down):  4.010E-02 0.000E+00

     total cpu time spent up to now is      132.2 secs

     total energy              =   -9096.06069366 Ry
     estimated scf accuracy    <       0.00001302 Ry
[tb_dev] Currently allocated     2.41E+01 Mbytes, locked:    0 /   6
[tb_pin] Currently allocated     0.00E+00 Mbytes, locked:    0 /   0

     iteration # 24     ecut=    90.00 Ry     beta= 0.20
     Davidson diagonalization with overlap

---- Real-time Memory Report at c_bands before calling an iterative solver
         10713 MiB given to the printing process from OS
         -1871 MiB allocation reported by mallinfo(arena+hblkhd)
        463820 MiB available memory on the node where the printing process lives
     GPU memory used/free/total (MiB): 32695 / 32273 / 64969
------------------
     ethr =  9.35E-10,  avg # of iterations =  4.0

     negative rho (up, down):  4.013E-02 0.000E+00

     total cpu time spent up to now is      136.1 secs

     total energy              =   -9096.06069573 Ry
     estimated scf accuracy    <       0.00000568 Ry
[tb_dev] Currently allocated     2.41E+01 Mbytes, locked:    0 /   6
[tb_pin] Currently allocated     0.00E+00 Mbytes, locked:    0 /   0

     iteration # 25     ecut=    90.00 Ry     beta= 0.20
     Davidson diagonalization with overlap

---- Real-time Memory Report at c_bands before calling an iterative solver
         10713 MiB given to the printing process from OS
         -1871 MiB allocation reported by mallinfo(arena+hblkhd)
        463820 MiB available memory on the node where the printing process lives
     GPU memory used/free/total (MiB): 32695 / 32273 / 64969
------------------
     ethr =  4.08E-10,  avg # of iterations =  4.0

     negative rho (up, down):  4.016E-02 0.000E+00

     total cpu time spent up to now is      139.9 secs

     total energy              =   -9096.06069640 Ry
     estimated scf accuracy    <       0.00000257 Ry
[tb_dev] Currently allocated     2.41E+01 Mbytes, locked:    0 /   6
[tb_pin] Currently allocated     0.00E+00 Mbytes, locked:    0 /   0

     iteration # 26     ecut=    90.00 Ry     beta= 0.20
     Davidson diagonalization with overlap

---- Real-time Memory Report at c_bands before calling an iterative solver
         10713 MiB given to the printing process from OS
         -1871 MiB allocation reported by mallinfo(arena+hblkhd)
        463820 MiB available memory on the node where the printing process lives
     GPU memory used/free/total (MiB): 32695 / 32273 / 64969
------------------
     ethr =  1.85E-10,  avg # of iterations =  2.0

     negative rho (up, down):  4.019E-02 0.000E+00

     total cpu time spent up to now is      143.7 secs

     total energy              =   -9096.06069686 Ry
     estimated scf accuracy    <       0.00000104 Ry
[tb_dev] Currently allocated     2.41E+01 Mbytes, locked:    0 /   6
[tb_pin] Currently allocated     0.00E+00 Mbytes, locked:    0 /   0

     iteration # 27     ecut=    90.00 Ry     beta= 0.20
     Davidson diagonalization with overlap

---- Real-time Memory Report at c_bands before calling an iterative solver
         10714 MiB given to the printing process from OS
         -1871 MiB allocation reported by mallinfo(arena+hblkhd)
        463867 MiB available memory on the node where the printing process lives
     GPU memory used/free/total (MiB): 32695 / 32273 / 64969
------------------
     ethr =  7.47E-11,  avg # of iterations =  2.0

     negative rho (up, down):  4.020E-02 0.000E+00

     total cpu time spent up to now is      147.5 secs

     total energy              =   -9096.06069705 Ry
     estimated scf accuracy    <       0.00000044 Ry
[tb_dev] Currently allocated     2.41E+01 Mbytes, locked:    0 /   6
[tb_pin] Currently allocated     0.00E+00 Mbytes, locked:    0 /   0

     iteration # 28     ecut=    90.00 Ry     beta= 0.20
     Davidson diagonalization with overlap

---- Real-time Memory Report at c_bands before calling an iterative solver
         10714 MiB given to the printing process from OS
         -1871 MiB allocation reported by mallinfo(arena+hblkhd)
        463867 MiB available memory on the node where the printing process lives
     GPU memory used/free/total (MiB): 32695 / 32273 / 64969
------------------
     ethr =  3.15E-11,  avg # of iterations =  5.0

     negative rho (up, down):  4.021E-02 0.000E+00

     total cpu time spent up to now is      151.5 secs

     total energy              =   -9096.06069713 Ry
     estimated scf accuracy    <       0.00000015 Ry
[tb_dev] Currently allocated     2.41E+01 Mbytes, locked:    0 /   6
[tb_pin] Currently allocated     0.00E+00 Mbytes, locked:    0 /   0

     iteration # 29     ecut=    90.00 Ry     beta= 0.20
     Davidson diagonalization with overlap

---- Real-time Memory Report at c_bands before calling an iterative solver
         10714 MiB given to the printing process from OS
         -1871 MiB allocation reported by mallinfo(arena+hblkhd)
        463820 MiB available memory on the node where the printing process lives
     GPU memory used/free/total (MiB): 32695 / 32273 / 64969
------------------
     ethr =  1.06E-11,  avg # of iterations =  4.0

     negative rho (up, down):  4.024E-02 0.000E+00

     total cpu time spent up to now is      155.1 secs

     End of self-consistent calculation

          k = 0.0000 0.0000 0.0000 (371318 PWs)   bands (ev):

[...]
     atom  143 type  1   force =     0.00000057   -0.00000075   -0.00003229
     atom  144 type  1   force =     0.00003278   -0.00000619    0.00002421
     atom  145 type  1   force =    -0.00001387    0.00002272    0.00003215
     atom  146 type  1   force =    -0.00001827   -0.00001396    0.00002563
     atom  147 type  1   force =     0.00000801   -0.00000534   -0.00000597
     atom  148 type  1   force =     0.00000545    0.00001070   -0.00000464
     atom  149 type  1   force =    -0.00000586    0.00000499   -0.00006007
     atom  150 type  4   force =    -0.00000352   -0.00000660   -0.00003285
     atom  151 type  2   force =    -0.00000109    0.00000624   -0.00001142
     atom  152 type  2   force =     0.00000164   -0.00000357   -0.00000514
     atom  153 type  2   force =     0.00000267   -0.00000456   -0.00000089
     atom  154 type  2   force =     0.00000290   -0.00000130   -0.00000655
     atom  155 type  2   force =     0.00000416   -0.00000059   -0.00000732
     atom  156 type  2   force =    -0.00000539    0.00000349   -0.00000664
     atom  157 type  2   force =     0.00000944   -0.00000970    0.00000326
     atom  158 type  2   force =    -0.00000015    0.00000618    0.00000459
     atom  159 type  2   force =    -0.00001225   -0.00000247   -0.00000025
     atom  160 type  2   force =     0.00001338   -0.00000444    0.00000117
     atom  161 type  2   force =    -0.00000394    0.00001548    0.00000022
     atom  162 type  2   force =    -0.00001152   -0.00000586    0.00000108
     atom  163 type  2   force =     0.00000222    0.00000413    0.00001001
     atom  164 type  2   force =     0.00000238   -0.00000094   -0.00000211
     atom  165 type  3   force =    -0.00001372   -0.00000681   -0.00003548
     atom  166 type  3   force =     0.00000882   -0.00002741   -0.00003766
     atom  167 type  1   force =    -0.00000850    0.00000464    0.00000077
     atom  168 type  1   force =    -0.00000237   -0.00000394    0.00002837
     atom  169 type  1   force =     0.00001850   -0.00001124    0.00000151
     atom  170 type  1   force =    -0.00000451    0.00001957    0.00000518
     atom  171 type  1   force =    -0.00000586   -0.00001572    0.00000494
     atom  172 type  1   force =     0.00001517    0.00000993   -0.00000393
     atom  173 type  1   force =     0.00000328   -0.00001508   -0.00000482
     atom  174 type  1   force =     0.00000250   -0.00000724    0.00000467
     atom  175 type  4   force =     0.00000511   -0.00000954    0.00002145
     atom  176 type  2   force =     0.00000150    0.00000696    0.00001538
     atom  177 type  2   force =     0.00000388   -0.00000783    0.00001797
     atom  178 type  2   force =     0.00000405    0.00000094    0.00001715
     atom  179 type  2   force =     0.00000521   -0.00000443   -0.00001488
     atom  180 type  2   force =     0.00000448   -0.00000039    0.00000282
     atom  181 type  2   force =    -0.00000243   -0.00000078    0.00000462
     atom  182 type  2   force =    -0.00000399    0.00000630   -0.00000490
     atom  183 type  2   force =     0.00000038   -0.00000847   -0.00000030
     atom  184 type  2   force =     0.00001200    0.00000004   -0.00000599
     atom  185 type  2   force =    -0.00000787    0.00000052   -0.00000539
     atom  186 type  2   force =    -0.00000256    0.00000296    0.00000553
     atom  187 type  2   force =     0.00000641    0.00000507    0.00000047
     atom  188 type  2   force =     0.00000611   -0.00000022    0.00001436
     atom  189 type  2   force =    -0.00000052    0.00000422   -0.00000969
     atom  190 type  3   force =     0.00000466    0.00001728    0.00002630
     atom  191 type  3   force =     0.00000953    0.00000158    0.00005417
     atom  192 type  1   force =    -0.00002744    0.00001407   -0.00002178
     atom  193 type  1   force =    -0.00000209    0.00000942    0.00000008
     atom  194 type  1   force =    -0.00000035    0.00000855    0.00001889
     atom  195 type  1   force =     0.00001351    0.00001455    0.00002258
     atom  196 type  1   force =    -0.00000004   -0.00000729    0.00002304
     atom  197 type  1   force =     0.00002598    0.00004225   -0.00001516
     atom  198 type  1   force =     0.00001782   -0.00004273   -0.00002338
     atom  199 type  1   force =     0.00000637   -0.00000489   -0.00001630
     atom  200 type  4   force =     0.00000408    0.00000845   -0.00002171
     atom  201 type  2   force =    -0.00000223   -0.00000086   -0.00000968
     atom  202 type  2   force =     0.00000017   -0.00000165   -0.00000977
     atom  203 type  2   force =     0.00000111    0.00000116   -0.00001186
     atom  204 type  2   force =    -0.00000010   -0.00000739   -0.00001071
     atom  205 type  2   force =     0.00000126    0.00000675   -0.00000415
     atom  206 type  2   force =    -0.00000098   -0.00000226   -0.00000177
     atom  207 type  2   force =     0.00000815   -0.00000125   -0.00000188
     atom  208 type  2   force =     0.00000066    0.00000669    0.00000014
     atom  209 type  2   force =    -0.00000569   -0.00000488    0.00000154
     atom  210 type  2   force =     0.00000217   -0.00000410    0.00000001
     atom  211 type  2   force =     0.00000413    0.00000242    0.00000463
     atom  212 type  2   force =    -0.00000993    0.00000098    0.00000106
     atom  213 type  2   force =     0.00000401   -0.00000295    0.00001045
     atom  214 type  2   force =     0.00000016   -0.00000249   -0.00000166
     atom  215 type  3   force =     0.00001718   -0.00000175   -0.00001717
     atom  216 type  3   force =     0.00000918    0.00000990   -0.00003444
     atom  217 type  1   force =    -0.00000264   -0.00000189   -0.00000398
     atom  218 type  1   force =     0.00000398    0.00000104    0.00001072
     atom  219 type  1   force =     0.00000592    0.00000527    0.00000154
     atom  220 type  1   force =     0.00001894    0.00000666    0.00000722
     atom  221 type  1   force =     0.00000704   -0.00000080    0.00000179
     atom  222 type  1   force =     0.00000711    0.00000354    0.00000406
     atom  223 type  1   force =    -0.00000067   -0.00000793   -0.00000478
     atom  224 type  1   force =     0.00000731   -0.00000033    0.00002689
     atom  225 type  4   force =     0.00000251   -0.00000035    0.00000990
     atom  226 type  2   force =     0.00000229    0.00000421    0.00001106
     atom  227 type  2   force =    -0.00000598   -0.00000192    0.00000929
     atom  228 type  2   force =     0.00000654   -0.00000341    0.00001221
     atom  229 type  2   force =    -0.00000357    0.00000484    0.00000493
     atom  230 type  2   force =    -0.00000008    0.00000015    0.00000964
     atom  231 type  2   force =    -0.00000070    0.00000508    0.00000560
     atom  232 type  2   force =    -0.00000688    0.00000465   -0.00000212
     atom  233 type  2   force =     0.00000170   -0.00000551   -0.00001032
     atom  234 type  2   force =     0.00000917    0.00000164   -0.00000107
     atom  235 type  2   force =    -0.00000349    0.00000993   -0.00000544
     atom  236 type  2   force =    -0.00000004   -0.00000343   -0.00000131
     atom  237 type  2   force =     0.00001069    0.00000392   -0.00000891
     atom  238 type  2   force =     0.00000026   -0.00000901   -0.00000345
     atom  239 type  2   force =     0.00000334   -0.00001093    0.00000326
     atom  240 type  3   force =     0.00000313    0.00000789   -0.00001783
     atom  241 type  3   force =    -0.00001550    0.00003285    0.00004720
     atom  242 type  1   force =    -0.00002107    0.00000348   -0.00000820
     atom  243 type  1   force =    -0.00000090   -0.00000047   -0.00002364
     atom  244 type  1   force =     0.00002848    0.00000391    0.00002376
     atom  245 type  1   force =    -0.00000804    0.00001443    0.00001410
     atom  246 type  1   force =    -0.00002042    0.00000009    0.00002196
     atom  247 type  1   force =     0.00000568   -0.00000144   -0.00001755
     atom  248 type  1   force =     0.00000319    0.00000779   -0.00001093
     atom  249 type  1   force =    -0.00000313    0.00001635   -0.00004678
     atom  250 type  4   force =    -0.00000459   -0.00001200   -0.00002030
     atom  251 type  2   force =    -0.00000023    0.00000009   -0.00000707
     atom  252 type  2   force =    -0.00000113   -0.00000211   -0.00000967
     atom  253 type  2   force =     0.00000063    0.00000232   -0.00001208
     atom  254 type  2   force =     0.00000177   -0.00000234   -0.00000395
     atom  255 type  2   force =     0.00000248    0.00000242   -0.00000182
     atom  256 type  2   force =     0.00000266    0.00000086   -0.00000162
     atom  257 type  2   force =     0.00000483   -0.00000085   -0.00000012
     atom  258 type  2   force =     0.00000318    0.00000700    0.00000062
     atom  259 type  2   force =    -0.00000651   -0.00000082    0.00000349
     atom  260 type  2   force =     0.00000568   -0.00000320    0.00000012
     atom  261 type  2   force =     0.00000644    0.00000688    0.00000068
     atom  262 type  2   force =    -0.00000668   -0.00000489   -0.00000135
     atom  263 type  2   force =     0.00000107   -0.00000369    0.00000945
     atom  264 type  2   force =    -0.00000168   -0.00000367   -0.00000032
     atom  265 type  3   force =     0.00001414   -0.00000289   -0.00001654
     atom  266 type  3   force =     0.00000072    0.00002097   -0.00003131
     atom  267 type  1   force =     0.00000498    0.00000381    0.00001172
     atom  268 type  1   force =     0.00000325   -0.00000000   -0.00000152
     atom  269 type  1   force =     0.00001256    0.00001190    0.00000213
     atom  270 type  1   force =     0.00001066    0.00000749    0.00000022
     atom  271 type  1   force =    -0.00000288    0.00000606    0.00000490
     atom  272 type  1   force =     0.00000826   -0.00001292    0.00000422
     atom  273 type  1   force =    -0.00000559    0.00000381    0.00000712
     atom  274 type  1   force =     0.00000703    0.00000831    0.00002250
     atom  275 type  4   force =    -0.00001309   -0.00000167    0.00001582
     atom  276 type  2   force =     0.00000172    0.00000851    0.00001586
     atom  277 type  2   force =    -0.00000268   -0.00000195    0.00001481
     atom  278 type  2   force =     0.00000761    0.00000275    0.00001711
     atom  279 type  2   force =     0.00000269   -0.00000461   -0.00001362
     atom  280 type  2   force =     0.00000284   -0.00000325    0.00000358
     atom  281 type  2   force =    -0.00000276   -0.00000267    0.00000561
     atom  282 type  2   force =    -0.00000704    0.00001143   -0.00000469
     atom  283 type  2   force =    -0.00000256   -0.00000003   -0.00000387
     atom  284 type  2   force =     0.00001215    0.00000147   -0.00000744
     atom  285 type  2   force =    -0.00000917    0.00000147   -0.00000776
     atom  286 type  2   force =     0.00000021   -0.00000609    0.00000504
     atom  287 type  2   force =     0.00001067    0.00000410    0.00000043
     atom  288 type  2   force =     0.00000462    0.00000565    0.00000569
     atom  289 type  2   force =     0.00000155    0.00000441   -0.00001290
     atom  290 type  3   force =     0.00000572   -0.00002482    0.00001627
     atom  291 type  3   force =    -0.00000036   -0.00001111    0.00004558
     atom  292 type  1   force =    -0.00001690   -0.00001057   -0.00001377
     atom  293 type  1   force =     0.00000785   -0.00000968   -0.00003132
     atom  294 type  1   force =     0.00003064    0.00000476    0.00003290
     atom  295 type  1   force =    -0.00000336    0.00002964    0.00003387
     atom  296 type  1   force =    -0.00001325   -0.00002716    0.00002439
     atom  297 type  1   force =     0.00000615    0.00001967   -0.00001200
     atom  298 type  1   force =    -0.00000349   -0.00002211   -0.00000916
     atom  299 type  1   force =     0.00000332   -0.00001095   -0.00004599
     atom  300 type  4   force =    -0.00000204    0.00001380   -0.00001513

     Total force =     0.898905     Total SCF correction =     0.000412


     Computing stress (Cartesian axis) and pressure


     negative rho (up, down):  4.024E-02 0.000E+00
          total   stress  (Ry/bohr**3)                   (kbar)     P=        2.81
   0.00003817   0.00000011  -0.00000885            5.62        0.02       -1.30
   0.00000011   0.00004329  -0.00000521            0.02        6.37       -0.77
  -0.00000885  -0.00000521  -0.00002425           -1.30       -0.77       -3.57

     kinetic stress (kbar)   5332.87      0.86     -0.71
                                0.86   5333.15     -0.70
                               -0.71     -0.70   5324.76

     local   stress (kbar)-643658.13     57.92     51.27
                               57.92-643460.88    -39.34
                               51.27    -39.34 637187.42

     nonloc. stress (kbar)    958.48     -0.37      0.07
                               -0.37    957.45      0.25
                                0.07      0.25    953.97

     hartree stress (kbar) 322467.04    -22.56    -20.60
                              -22.56 322390.41     14.98
                              -20.60     14.98-316567.17

     exc-cor stress (kbar)  -1263.53     -0.05     -0.05
                               -0.05  -1263.80      0.04
                               -0.05      0.04  -1265.50

     corecor stress (kbar)   -292.86      0.00      0.00
                                0.00   -292.84     -0.00
                                0.00     -0.00   -292.75

     ewald   stress (kbar) 316461.75    -35.78    -31.29
                              -35.78 316342.88     24.00
                              -31.29     24.00-325344.29

     hubbard stress (kbar)      0.00      0.00      0.00
                                0.00      0.00      0.00
                                0.00      0.00      0.00

     DFT-D   stress (kbar)      0.00      0.00      0.00
                                0.00      0.00      0.00
                                0.00      0.00      0.00

     XDM     stress (kbar)      0.00      0.00      0.00
                                0.00      0.00      0.00
                                0.00      0.00      0.00

     dft-nl  stress (kbar)      0.00      0.00      0.00
                                0.00      0.00      0.00
                                0.00      0.00      0.00

     TS-vdW  stress (kbar)      0.00      0.00      0.00
                                0.00      0.00      0.00
                                0.00      0.00      0.00

     MDB     stress (kbar)      0.00      0.00      0.00
                                0.00      0.00      0.00
                                0.00      0.00      0.00

     3D-RISM stress (kbar)      0.00      0.00      0.00
                                0.00      0.00      0.00
                                0.00      0.00      0.00


     Writing all to output data dir ./tmp/pwscf.save/
 
     init_run     :     29.77s CPU     34.55s WALL (       1 calls)
     electrons    :    113.28s CPU    120.26s WALL (       1 calls)
     forces       :      3.13s CPU      3.36s WALL (       1 calls)
     stress       :     80.92s CPU     83.37s WALL (       1 calls)

     Called by init_run:
     wfcinit      :      3.49s CPU      5.40s WALL (       1 calls)
                                        5.40s GPU  (       1 calls)
     wfcinit:atom :      0.01s CPU      0.01s WALL (       1 calls)
                                        0.01s GPU  (       1 calls)
     wfcinit:wfcr :      1.26s CPU      2.42s WALL (       1 calls)
                                        2.42s GPU  (       1 calls)
     potinit      :     16.27s CPU     16.53s WALL (       1 calls)
     hinit0       :      7.68s CPU      7.90s WALL (       1 calls)

     Called by electrons:
     c_bands      :     71.69s CPU     73.40s WALL (      29 calls)
     sum_band     :     15.88s CPU     16.29s WALL (      29 calls)
     v_of_rho     :      3.20s CPU      3.38s WALL (      30 calls)
     v_h          :      1.74s CPU      1.86s WALL (      30 calls)
     v_xc         :      1.59s CPU      1.65s WALL (      32 calls)
     newd         :      2.43s CPU      4.87s WALL (      30 calls)
                                        4.87s GPU  (      30 calls)
     PAW_pot      :      3.26s CPU      3.27s WALL (      30 calls)
     mix_rho      :      8.10s CPU      8.35s WALL (      29 calls)

     Called by c_bands:
     init_us_2    :      0.43s CPU      0.64s WALL (      59 calls)
     init_us_2:gp :      0.43s CPU      0.64s WALL (      59 calls)
     regterg      :     62.54s CPU     64.03s WALL (      30 calls)

     Called by sum_band:
     sum_band:wei :      0.01s CPU      0.01s WALL (      29 calls)
                                        0.01s GPU  (      29 calls)
     sum_band:loo :     12.47s CPU     12.83s WALL (      29 calls)
                                       12.83s GPU  (      29 calls)
     sum_band:buf :      1.88s CPU      1.90s WALL (      29 calls)
                                        1.90s GPU  (      29 calls)
     sum_band:ini :      0.21s CPU      0.46s WALL (      29 calls)
                                        0.46s GPU  (      29 calls)
     sum_band:cal :      2.09s CPU      2.14s WALL (      29 calls)
                                        2.14s GPU  (      29 calls)
     sum_band:bec :      0.20s CPU      0.20s WALL (      29 calls)
                                        0.20s GPU  (      29 calls)
     addusdens    :      2.07s CPU      2.11s WALL (      29 calls)
                                        2.11s GPU  (      29 calls)
     addusd:skk   :      0.44s CPU      0.45s WALL (     116 calls)
                                        0.45s GPU  (     116 calls)

     Called by *egterg:
     rdiaghg      :      5.45s CPU      5.57s WALL (     201 calls)
                                        5.57s GPU  (     201 calls)
     regterg:over :      3.87s CPU      3.98s WALL (     171 calls)
     regterg:upda :      2.11s CPU      2.16s WALL (     171 calls)
     regterg:last :      4.29s CPU      4.30s WALL (      66 calls)
     h_psi        :     40.61s CPU     42.80s WALL (     202 calls)
                                       42.80s GPU  (     202 calls)
     s_psi        :      1.05s CPU      4.96s WALL (     202 calls)
                                        4.81s GPU  (     202 calls)
     g_psi        :      0.00s CPU      0.21s WALL (     171 calls)
                                        0.21s GPU  (     171 calls)

     Called by h_psi:
     h_psi:calbec :      5.74s CPU      5.98s WALL (     202 calls)
                                        5.98s GPU  (     202 calls)
     vloc_psi     :     30.36s CPU     31.72s WALL (     202 calls)
                                       31.72s GPU  (     202 calls)
     add_vuspsi   :      0.43s CPU      4.89s WALL (     202 calls)
                                        4.89s GPU  (     202 calls)

     General routines
     calbec       :      8.22s CPU      8.67s WALL (     236 calls)
     fft          :      5.66s CPU      7.58s WALL (     348 calls)
                                        0.76s GPU  (     318 calls)
     ffts         :      2.93s CPU      3.47s WALL (      59 calls)
                                        0.04s GPU  (      29 calls)
     fftw         :     18.25s CPU     30.64s WALL (   16502 calls)
                                       30.44s GPU  (   16502 calls)
     interpolate  :      9.17s CPU     11.47s WALL (      30 calls)
 
     Parallel routines

     PAW routines
     PAW_pot      :      3.26s CPU      3.27s WALL (      30 calls)
 
     PWSCF        :   3m49.47s CPU   4m 9.11s WALL

 
   This run was terminated on:  14:42:25  30Dec2023            

=------------------------------------------------------------------------------=
   JOB DONE.
=------------------------------------------------------------------------------=
