
     Program PWSCF v.7.2 starts on 30Dec2023 at 13:55:55 

     This program is part of the open-source Quantum ESPRESSO suite
     for quantum simulation of materials; please cite
         "P. Giannozzi et al., J. Phys.:Condens. Matter 21 395502 (2009);
         "P. Giannozzi et al., J. Phys.:Condens. Matter 29 465901 (2017);
         "P. Giannozzi et al., J. Chem. Phys. 152 154105 (2020);
          URL http://www.quantum-espresso.org", 
     in publications or presentations arising from this work. More details at
     http://www.quantum-espresso.org/quote

     Parallel version (MPI & OpenMP), running on       4 processor cores
     Number of MPI processes:                 4
     Threads/MPI process:                     1

     MPI processes distributed on     1 nodes
     504005 MiB available memory on the printing compute node when the environment starts
 
     Reading input from input_0008.inp

     Current dimensions of program PWSCF are:
     Max number of different atomic species (ntypx) = 10
     Max number of k-points (npk) =  40000
     Max angular momentum in pseudopotentials (lmaxx) =  4
     file O.pbe-n-kjpaw_psl.0.1.UPF: wavefunction(s)  2P renormalized

     gamma-point specific algorithms are used
 
     R & G space division:  proc/nbgrp/npool/nimage =       4
     Subspace diagonalization in iterative solution of the eigenvalue problem:
     a serial algorithm will be used

 
     Parallelization info
     --------------------
     sticks:   dense  smooth     PW     G-vecs:    dense   smooth      PW
     Min        6485    4324   1079              2728975  1485363  185656
     Max        6486    4326   1080              2728990  1485382  185664
     Sum       25943   17301   4319             10915929  5941483  742635
 
     Using Slab Decomposition
 


     bravais-lattice index     =            0
     lattice parameter (alat)  =      32.3352  a.u.
     unit-cell volume          =   51510.8153 (a.u.)^3
     number of atoms/cell      =          300
     number of atomic types    =            4
     number of electrons       =      1392.00
     number of Kohn-Sham states=          835
     kinetic-energy cutoff     =      90.0000  Ry
     charge density cutoff     =     540.0000  Ry
     scf convergence threshold =      1.0E-07
     mixing beta               =       0.2000
     number of iterations used =            8  plain     mixing
     Exchange-correlation= SLA  PW   PBX  PBC
                           (   1   4   3   4   0   0   0)

     GPU acceleration is ACTIVE.
     GPU-aware MPI enabled


     GPU used by master process:

        Device Number: 0
        Device name: NVIDIA PG506-243
        Compute capability : 80
        Ratio of single to double precision performance  : 2
        Memory Clock Rate (KHz): 1593000
        Memory Bus Width (bits): 4096
        Peak Memory Bandwidth (GB/s): ******

     celldm(1)=  32.335181  celldm(2)=   0.000000  celldm(3)=   0.000000
     celldm(4)=   0.000000  celldm(5)=   0.000000  celldm(6)=   0.000000

     crystal axes: (cart. coord. in units of alat)
               a(1) = (   1.000000   0.000000   0.000000 )  
               a(2) = (  -0.333333   0.577350   0.000000 )  
               a(3) = (   0.000000  -0.000000   2.638962 )  

     reciprocal axes: (cart. coord. in units 2 pi/alat)
               b(1) = (  1.000000  0.577350  0.000000 )  
               b(2) = ( -0.000000  1.732051  0.000000 )  
               b(3) = (  0.000000 -0.000000  0.378937 )  


     PseudoPot. # 1 for N  read from file:
     /leonardo_scratch/large/userexternal/uraucci0/Li_Cr/PPS/N.pbe-n-radius_5.UPF
     MD5 check sum: 16739722b17309cd8fe442a2ace49922
     Pseudo is Ultrasoft + core correction, Zval =  5.0
     Generated using "atomic" code by A. Dal Corso  v.5.1
     Using radial grid of 1085 points,  4 beta functions with: 
                l(1) =   0
                l(2) =   0
                l(3) =   1
                l(4) =   1
     Q(r) pseudized with 0 coefficients 


     PseudoPot. # 2 for Li read from file:
     /leonardo_scratch/large/userexternal/uraucci0/Li_Cr/PPS/li_pbe_v1.4.uspp.F.UPF
     MD5 check sum: e912e257baa3777c20ea3d68f190483c
     Pseudo is Ultrasoft, Zval =  3.0
     Generated by new atomic code, or converted to UPF format
     Using radial grid of  751 points,  5 beta functions with: 
                l(1) =   0
                l(2) =   0
                l(3) =   0
                l(4) =   1
                l(5) =   1
     Q(r) pseudized with 10 coefficients,  rinner =    1.150   1.150   1.150


     PseudoPot. # 3 for Cr read from file:
     /leonardo_scratch/large/userexternal/uraucci0/Li_Cr/PPS/cr_pbe_v1.5.uspp.F.UPF
     MD5 check sum: 0d52af634a40206e4dee301ad30da4bf
     Pseudo is Ultrasoft + core correction, Zval = 14.0
     Generated by new atomic code, or converted to UPF format
     Using radial grid of  857 points,  6 beta functions with: 
                l(1) =   0
                l(2) =   0
                l(3) =   1
                l(4) =   1
                l(5) =   2
                l(6) =   2
     Q(r) pseudized with  8 coefficients,  rinner =    0.950   0.950   0.950
                                                       0.950   0.950

     PseudoPot. # 4 for O  read from file:
     /leonardo_scratch/large/userexternal/uraucci0/Li_Cr/PPS/O.pbe-n-kjpaw_psl.0.1.UPF
     MD5 check sum: 0234752ac141de4415c5fc33072bef88
     Pseudo is Projector augmented-wave + core cor, Zval =  6.0
     Generated using "atomic" code by A. Dal Corso  v.5.0.99 svn rev. 10869
     Shape of augmentation charge: BESSEL
     Using radial grid of 1095 points,  4 beta functions with: 
                l(1) =   0
                l(2) =   0
                l(3) =   1
                l(4) =   1
     Q(r) pseudized with 0 coefficients 


     atomic species   valence    mass     pseudopotential
        N              5.00    14.00674     N ( 1.00)
        Li             3.00     6.94100     Li( 1.00)
        Cr            14.00    51.99610     Cr( 1.00)
        O              6.00    15.99940     O ( 1.00)

     No symmetry found


                                    s                        frac. trans.

      isym =  1     identity                                     

 cryst.   s( 1) = (     1          0          0      )
                  (     0          1          0      )
                  (     0          0          1      )

 cart.    s( 1) = (  1.0000000  0.0000000  0.0000000 )
                  (  0.0000000  1.0000000  0.0000000 )
                  (  0.0000000  0.0000000  1.0000000 )


   Cartesian axes

     site n.     atom                  positions (alat units)
         1           Li  tau(   1) = (   0.2593273   0.0873080   0.8766270  )
         2           Li  tau(   2) = (   0.1280588   0.1809300   0.8766270  )
         3           Li  tau(   3) = (   0.1126144   0.0204373   0.8766270  )
         4           Li  tau(   4) = (  -0.0901587   0.2083082   1.2835981  )
         5           Li  tau(   5) = (   0.0455729   0.1173722   1.2887761  )
         6           Li  tau(   6) = (   0.0544883   0.2679451   1.2886299  )
         7           Li  tau(   7) = (   0.0669942   0.0904568   1.0336250  )
         8           Li  tau(   8) = (   0.2214985   0.0127904   1.0336250  )
         9           Li  tau(   9) = (   0.2115073   0.1854282   1.0336250  )
        10           Li  tau(  10) = (   0.0936518   0.2142617   1.1368566  )
        11           Li  tau(  11) = (  -0.0658803   0.2720659   1.1309890  )
        12           Li  tau(  12) = (  -0.0482324   0.1115116   1.1070337  )
        13           Li  tau(  13) = (   0.0000000   0.0000000   0.9626942  )
        14           Li  tau(  14) = (   0.0119825   0.0276842   1.1840659  )
        15           Cr  tau(  15) = (   0.1661839   0.1060672   1.2081790  )
        16           Cr  tau(  16) = (  -0.0000000   0.1924500   0.9478909  )
        17           N   tau(  17) = (   0.2538268   0.0845133   1.2363362  )
        18           N   tau(  18) = (   0.1636423   0.1050731   1.1078753  )
        19           N   tau(  19) = (  -0.0969339   0.1982778   0.9168466  )
        20           N   tau(  20) = (   0.0434200   0.1055885   0.9168466  )
        21           N   tau(  21) = (   0.0535141   0.2734837   0.9168466  )
        22           N   tau(  22) = (   0.1142157   0.0247777   1.2561831  )
        23           N   tau(  23) = (   0.1299816   0.1883269   1.2475103  )
        24           N   tau(  24) = (  -0.0000000   0.1924500   1.0497374  )
        25           O   tau(  25) = (   0.0012033   0.0036789   1.0671472  )
        26           Li  tau(  26) = (   0.2419508   0.0860947   1.3689348  )
        27           Li  tau(  27) = (   0.1297870   0.1761161   1.3697530  )
        28           Li  tau(  28) = (   0.0991506   0.0005840   1.3656153  )
        29           Li  tau(  29) = (  -0.0948078   0.1976379   1.7852216  )
        30           Li  tau(  30) = (   0.0347213   0.1088023   1.7869339  )
        31           Li  tau(  31) = (   0.0517827   0.2777166   1.7883541  )
        32           Li  tau(  32) = (   0.0530456   0.0981922   1.5321335  )
        33           Li  tau(  33) = (   0.2189808   0.0137410   1.5509693  )
        34           Li  tau(  34) = (   0.2129134   0.1574136   1.5129296  )
        35           Li  tau(  35) = (   0.1007840   0.2017639   1.6171664  )
        36           Li  tau(  36) = (  -0.0536545   0.2741142   1.6177683  )
        37           Li  tau(  37) = (  -0.0467041   0.1134799   1.6390470  )
        38           Li  tau(  38) = (   0.6545949   0.5647319   1.4553761  )
        39           Li  tau(  39) = (   0.9978411   0.0016623   1.7051329  )
        40           Cr  tau(  40) = (   0.1638468   0.0968275   1.7107726  )
        41           Cr  tau(  41) = (  -0.0018241   0.1922916   1.4496722  )
        42           N   tau(  42) = (   0.2566039   0.0926507   1.7435292  )
        43           N   tau(  43) = (   0.1689774   0.0906730   1.6041046  )
        44           N   tau(  44) = (  -0.0974476   0.2007096   1.4185578  )
        45           N   tau(  45) = (   0.0328323   0.1079402   1.4112291  )
        46           N   tau(  46) = (   0.0534630   0.2695786   1.4187155  )
        47           N   tau(  47) = (   0.1055032   0.0122169   1.7469714  )
        48           N   tau(  48) = (   0.1139218   0.1816126   1.7458260  )
        49           N   tau(  49) = (   0.0022848   0.1967659   1.5501161  )
        50           O   tau(  50) = (   0.9913307   0.0119466   1.5724584  )
        51           Li  tau(  51) = (   0.0926606   0.3759836   0.8766270  )
        52           Li  tau(  52) = (  -0.0386079   0.4696050   0.8766270  )
        53           Li  tau(  53) = (  -0.0540524   0.3091127   0.8766270  )
        54           Li  tau(  54) = (  -0.2627052   0.4844346   1.2811319  )
        55           Li  tau(  55) = (  -0.1410651   0.4005069   1.2814358  )
        56           Li  tau(  56) = (  -0.1221089   0.5644385   1.2787182  )
        57           Li  tau(  57) = (  -0.0996725   0.3791318   1.0336250  )
        58           Li  tau(  58) = (   0.0548319   0.3014656   1.0336250  )
        59           Li  tau(  59) = (   0.0448406   0.4741032   1.0336250  )
        60           Li  tau(  60) = (  -0.0772203   0.4889165   1.1070805  )
        61           Li  tau(  61) = (  -0.2009626   0.5606222   1.1434956  )
        62           Li  tau(  62) = (  -0.2117265   0.3983253   1.1057889  )
        63           Li  tau(  63) = (  -0.1666667   0.2886750   0.9626942  )
        64           Li  tau(  64) = (   0.8139715   0.2825339   1.1898750  )
        65           Cr  tau(  65) = (  -0.0090498   0.3807407   1.2084186  )
        66           Cr  tau(  66) = (  -0.1666667   0.4811250   0.9478909  )
        67           N   tau(  67) = (   0.0887737   0.3825413   1.2519577  )
        68           N   tau(  68) = (  -0.0087833   0.3823601   1.1085474  )
        69           N   tau(  69) = (  -0.2636006   0.4869528   0.9168466  )
        70           N   tau(  70) = (  -0.1232467   0.3942641   0.9168466  )
        71           N   tau(  71) = (  -0.1131527   0.5621587   0.9168466  )
        72           N   tau(  72) = (  -0.0400516   0.2949324   1.2343375  )
        73           N   tau(  73) = (  -0.0444390   0.4761849   1.2399655  )
        74           N   tau(  74) = (  -0.1666667   0.4811250   1.0497374  )
        75           O   tau(  75) = (   0.8255664   0.2812319   1.0760596  )
        76           Li  tau(  76) = (   0.0987503   0.3773932   1.3682861  )
        77           Li  tau(  77) = (  -0.0538058   0.4768202   1.3532724  )
        78           Li  tau(  78) = (  -0.0548612   0.3163525   1.3824232  )
        79           Li  tau(  79) = (  -0.2446321   0.4830361   1.7616637  )
        80           Li  tau(  80) = (  -0.1315279   0.3929171   1.7891606  )
        81           Li  tau(  81) = (  -0.1234408   0.5462713   1.7634871  )
        82           Li  tau(  82) = (  -0.0881589   0.3761939   1.5226660  )
        83           Li  tau(  83) = (   0.0434322   0.3039552   1.5382466  )
        84           Li  tau(  84) = (   0.0519943   0.4721770   1.5264881  )
        85           Li  tau(  85) = (  -0.0653227   0.4872830   1.6124676  )
        86           Li  tau(  86) = (  -0.2204664   0.5692073   1.6226657  )
        87           Li  tau(  87) = (  -0.1965947   0.4002316   1.6103404  )
        88           Li  tau(  88) = (   0.8305281   0.2898041   1.4598118  )
        89           Li  tau(  89) = (   0.8316209   0.2865057   1.6956303  )
        90           Cr  tau(  90) = (  -0.0017331   0.3844529   1.7033154  )
        91           Cr  tau(  91) = (  -0.1703719   0.4743680   1.4382819  )
        92           N   tau(  92) = (   0.0989268   0.3807740   1.7376617  )
        93           N   tau(  93) = (  -0.0078421   0.3759193   1.6005514  )
        94           N   tau(  94) = (  -0.2652393   0.4774245   1.4099493  )
        95           N   tau(  95) = (  -0.1211633   0.3870413   1.4091603  )
        96           N   tau(  96) = (  -0.1246026   0.5560994   1.4028778  )
        97           N   tau(  97) = (  -0.0491577   0.3040212   1.7465097  )
        98           N   tau(  98) = (  -0.0431164   0.4695196   1.7317883  )
        99           N   tau(  99) = (  -0.1650426   0.4840091   1.5494440  )
       100           O   tau( 100) = (   0.8375294   0.2781859   1.5755032  )
       101           Li  tau( 101) = (   0.5926583   0.0873080   0.8766270  )
       102           Li  tau( 102) = (   0.4613921   0.1809300   0.8766270  )
       103           Li  tau( 103) = (   0.4459477   0.0204373   0.8766270  )
       104           Li  tau( 104) = (   0.2420151   0.2057274   1.2811494  )
       105           Li  tau( 105) = (   0.3742361   0.1068398   1.3082664  )
       106           Li  tau( 106) = (   0.3856703   0.2582338   1.2865319  )
       107           Li  tau( 107) = (   0.4003275   0.0904568   1.0336250  )
       108           Li  tau( 108) = (   0.5548318   0.0127904   1.0336250  )
       109           Li  tau( 109) = (   0.5448406   0.1854282   1.0336250  )
       110           Li  tau( 110) = (   0.4340303   0.2049969   1.1155838  )
       111           Li  tau( 111) = (   0.2925789   0.2850955   1.1310475  )
       112           Li  tau( 112) = (   0.2848880   0.1145272   1.1193065  )
       113           Li  tau( 113) = (   0.3333333   0.0000000   0.9626942  )
       114           Li  tau( 114) = (  -0.0010661   0.5739779   1.1968471  )
       115           Cr  tau( 115) = (   0.4860593   0.0988981   1.2119543  )
       116           Cr  tau( 116) = (   0.3333333   0.1924500   0.9478909  )
       117           N   tau( 117) = (   0.5828015   0.0910728   1.2431914  )
       118           N   tau( 118) = (   0.4959318   0.0951415   1.1020136  )
       119           N   tau( 119) = (   0.2363994   0.1982778   0.9168466  )
       120           N   tau( 120) = (   0.3767532   0.1055885   0.9168466  )
       121           N   tau( 121) = (   0.3868473   0.2734837   0.9168466  )
       122           N   tau( 122) = (   0.4451968   0.0199120   1.2473993  )
       123           N   tau( 123) = (   0.4381972   0.1856287   1.2493746  )
       124           N   tau( 124) = (   0.3333333   0.1924500   1.0497374  )
       125           O   tau( 125) = (   0.0085898   0.5711061   1.0755921  )
       126           Li  tau( 126) = (   0.3110506   0.5367803   1.4745742  )
       127           Li  tau( 127) = (   0.4677091   0.1779547   1.3933869  )
       128           Li  tau( 128) = (   0.6156551   0.0698993   1.3708342  )
       129           Li  tau( 129) = (   0.2367132   0.1923840   1.7687878  )
       130           Li  tau( 130) = (   0.3807764   0.0918746   1.7921703  )
       131           Li  tau( 131) = (   0.3854768   0.2669773   1.7687819  )
       132           Li  tau( 132) = (   0.3903760   0.1096818   1.5297959  )
       133           Li  tau( 133) = (   0.1031416   0.5603265   1.6138527  )
       134           Li  tau( 134) = (   0.5439377   0.1935020   1.5597005  )
       135           Li  tau( 135) = (   0.4130491   0.1884888   1.6074183  )
       136           Li  tau( 136) = (   0.2585757   0.2767295   1.6156293  )
       137           Li  tau( 137) = (   0.2860662   0.1069906   1.6068981  )
       138           Li  tau( 138) = (   0.4488523   0.0268251   1.3835394  )
       139           Li  tau( 139) = (   0.3346161   0.0165405   1.6917790  )
       140           Cr  tau( 140) = (   0.5013085   0.0945138   1.6935264  )
       141           Cr  tau( 141) = (   0.3233567   0.1926247   1.4490994  )
       142           N   tau( 142) = (   0.5948148   0.1011224   1.7297837  )
       143           N   tau( 143) = (   0.4878242   0.0915292   1.5936844  )
       144           N   tau( 144) = (   0.2285004   0.1987343   1.4125850  )
       145           N   tau( 145) = (   0.3692996   0.1011008   1.4146714  )
       146           N   tau( 146) = (   0.3860016   0.2727379   1.4199078  )
       147           N   tau( 147) = (   0.4467209   0.0111441   1.7267739  )
       148           N   tau( 148) = (   0.4465970   0.1789768   1.7291525  )
       149           N   tau( 149) = (   0.3173641   0.1923226   1.5465044  )
       150           O   tau( 150) = (   0.3291816   0.0016098   1.5693785  )
       151           Li  tau( 151) = (   0.4259940   0.3759836   0.8766270  )
       152           Li  tau( 152) = (   0.2947255   0.4696050   0.8766270  )
       153           Li  tau( 153) = (   0.2792811   0.3091127   0.8766270  )
       154           Li  tau( 154) = (   0.0780560   0.4953842   1.2865494  )
       155           Li  tau( 155) = (   0.1937942   0.3919995   1.2675383  )
       156           Li  tau( 156) = (   0.2127568   0.5648014   1.2795189  )
       157           Li  tau( 157) = (   0.2336608   0.3791318   1.0336250  )
       158           Li  tau( 158) = (   0.3881652   0.3014656   1.0336250  )
       159           Li  tau( 159) = (   0.3781739   0.4741032   1.0336250  )
       160           Li  tau( 160) = (   0.2731517   0.4816656   1.1141227  )
       161           Li  tau( 161) = (   0.1026618   0.5732217   1.1163143  )
       162           Li  tau( 162) = (   0.1315022   0.4080365   1.1133630  )
       163           Li  tau( 163) = (   0.1666667   0.2886750   0.9626942  )
       164           Li  tau( 164) = (   0.1440620   0.2949464   1.1917510  )
       165           Cr  tau( 165) = (   0.3382939   0.3887917   1.2119309  )
       166           Cr  tau( 166) = (   0.1666667   0.4811250   0.9478909  )
       167           N   tau( 167) = (   0.4386343   0.3902498   1.2279907  )
       168           N   tau( 168) = (   0.3258615   0.3798974   1.1081734  )
       169           N   tau( 169) = (   0.0697328   0.4869528   0.9168466  )
       170           N   tau( 170) = (   0.2100866   0.3942641   0.9168466  )
       171           N   tau( 171) = (   0.2201806   0.5621587   0.9168466  )
       172           N   tau( 172) = (   0.2935865   0.3091279   1.2378557  )
       173           N   tau( 173) = (   0.2948254   0.4731810   1.2412979  )
       174           N   tau( 174) = (   0.1666667   0.4811250   1.0497374  )
       175           O   tau( 175) = (   0.1614233   0.2891361   1.0636758  )
       176           Li  tau( 176) = (   0.4311415   0.3640819   1.3599523  )
       177           Li  tau( 177) = (   0.2962783   0.4703297   1.3591926  )
       178           Li  tau( 178) = (   0.2911039   0.3169760   1.3672108  )
       179           Li  tau( 179) = (   0.0599478   0.4860137   1.7564039  )
       180           Li  tau( 180) = (   0.2093514   0.4116856   1.7996801  )
       181           Li  tau( 181) = (   0.2319350   0.5691986   1.7824281  )
       182           Li  tau( 182) = (   0.2245445   0.3944751   1.5379485  )
       183           Li  tau( 183) = (   0.3567159   0.3306660   1.5092770  )
       184           Li  tau( 184) = (   0.3920182   0.4747607   1.5536109  )
       185           Li  tau( 185) = (   0.2503360   0.4782134   1.6317476  )
       186           Li  tau( 186) = (  -0.0037321   0.5718974   1.4496020  )
       187           Li  tau( 187) = (   0.1042134   0.3835033   1.6250677  )
       188           Li  tau( 188) = (   0.1685082   0.2874133   1.4650599  )
       189           Li  tau( 189) = (   0.1613146   0.2940972   1.6922524  )
       190           Cr  tau( 190) = (   0.3292739   0.3817401   1.7137239  )
       191           Cr  tau( 191) = (   0.1637165   0.4697856   1.4422384  )
       192           N   tau( 192) = (   0.4255714   0.3676199   1.7365162  )
       193           N   tau( 193) = (   0.3289373   0.3860700   1.6152787  )
       194           N   tau( 194) = (   0.0632358   0.4686763   1.4134792  )
       195           N   tau( 195) = (   0.2154772   0.3952471   1.4095168  )
       196           N   tau( 196) = (   0.2195121   0.5514480   1.4088272  )
       197           N   tau( 197) = (   0.2848751   0.2981139   1.7560474  )
       198           N   tau( 198) = (   0.2964180   0.4732576   1.7501331  )
       199           N   tau( 199) = (   0.1694198   0.4776594   1.5499232  )
       200           O   tau( 200) = (   0.1623618   0.2952842   1.5747961  )
       201           Li  tau( 201) = (   0.9259927   0.0873080   0.8766270  )
       202           Li  tau( 202) = (   0.7947266   0.1809300   0.8766270  )
       203           Li  tau( 203) = (   0.7792805   0.0204373   0.8766270  )
       204           Li  tau( 204) = (   0.5688000   0.1995314   1.2724299  )
       205           Li  tau( 205) = (   0.7051646   0.1019313   1.2621324  )
       206           Li  tau( 206) = (   0.7290731   0.2634217   1.2968410  )
       207           Li  tau( 207) = (   0.7336608   0.0904568   1.0336250  )
       208           Li  tau( 208) = (   0.8881634   0.0127904   1.0336250  )
       209           Li  tau( 209) = (   0.8781757   0.1854282   1.0336250  )
       210           Li  tau( 210) = (   0.7606492   0.1999995   1.1114812  )
       211           Li  tau( 211) = (   0.6155850   0.2768353   1.1070980  )
       212           Li  tau( 212) = (   0.6121486   0.1081939   1.1272955  )
       213           Li  tau( 213) = (   0.6666690   0.0000000   0.9626942  )
       214           Li  tau( 214) = (   0.3299840   0.5735262   1.2139063  )
       215           Cr  tau( 215) = (   0.8407554   0.1022761   1.2079218  )
       216           Cr  tau( 216) = (   0.6666690   0.1924500   0.9478909  )
       217           N   tau( 217) = (   0.9429467   0.0976650   1.2317953  )
       218           N   tau( 218) = (   0.8351508   0.1025648   1.1041058  )
       219           N   tau( 219) = (   0.5697327   0.1982778   0.9168466  )
       220           N   tau( 220) = (   0.7100854   0.1055885   0.9168466  )
       221           N   tau( 221) = (   0.7201783   0.2734837   0.9168466  )
       222           N   tau( 222) = (   0.7926519   0.0264809   1.2580883  )
       223           N   tau( 223) = (   0.7977831   0.1887939   1.2513149  )
       224           N   tau( 224) = (   0.6666690   0.1924500   1.0497374  )
       225           O   tau( 225) = (   0.6603514   0.0125412   1.0891389  )
       226           Li  tau( 226) = (   0.9197395   0.0974792   1.3625588  )
       227           Li  tau( 227) = (   0.7919039   0.1627598   1.3911602  )
       228           Li  tau( 228) = (   0.7737869   0.0193390   1.3943570  )
       229           Li  tau( 229) = (   0.5673968   0.2112297   1.7751287  )
       230           Li  tau( 230) = (   0.6991568   0.1079028   1.7731943  )
       231           Li  tau( 231) = (   0.7084782   0.2635088   1.7801897  )
       232           Li  tau( 232) = (   0.7434965   0.0665903   1.5228296  )
       233           Li  tau( 233) = (   0.8955621   0.0240186   1.5309121  )
       234           Li  tau( 234) = (   0.8778133   0.1902731   1.5492044  )
       235           Li  tau( 235) = (   0.7579258   0.2114997   1.6198021  )
       236           Li  tau( 236) = (   0.5998525   0.2883062   1.6210644  )
       237           Li  tau( 237) = (   0.6501475   0.0890606   1.6167456  )
       238           Li  tau( 238) = (   0.5508017   0.0020243   1.5329283  )
       239           Li  tau( 239) = (   0.3670326   0.5572683   1.6727971  )
       240           Cr  tau( 240) = (   0.8296105   0.0917712   1.7113804  )
       241           Cr  tau( 241) = (   0.6602170   0.1975245   1.4482929  )
       242           N   tau( 242) = (   0.9268051   0.0891045   1.7532890  )
       243           N   tau( 243) = (   0.8366060   0.1038972   1.6085287  )
       244           N   tau( 244) = (   0.5746109   0.2053019   1.3941700  )
       245           N   tau( 245) = (   0.6989814   0.1051567   1.4266636  )
       246           N   tau( 246) = (   0.7196698   0.2865507   1.4228182  )
       247           N   tau( 247) = (   0.4540250   0.5767212   1.7303214  )
       248           N   tau( 248) = (   0.7754817   0.1785058   1.7371006  )
       249           N   tau( 249) = (   0.6688079   0.1880429   1.5507999  )
       250           O   tau( 250) = (   0.3260661   0.5655091   1.5711142  )
       251           Li  tau( 251) = (   0.7593284   0.3759836   0.8766270  )
       252           Li  tau( 252) = (   0.6280565   0.4696050   0.8766270  )
       253           Li  tau( 253) = (   0.6126161   0.3091127   0.8766270  )
       254           Li  tau( 254) = (   0.4241945   0.4910134   1.2808981  )
       255           Li  tau( 255) = (   0.5352556   0.3692966   1.2748961  )
       256           Li  tau( 256) = (   0.5757248   0.5558820   1.2897345  )
       257           Li  tau( 257) = (   0.5669941   0.3791318   1.0336250  )
       258           Li  tau( 258) = (   0.7214991   0.3014656   1.0336250  )
       259           Li  tau( 259) = (   0.7115055   0.4741032   1.0336250  )
       260           Li  tau( 260) = (   0.5990635   0.4928484   1.1294988  )
       261           Li  tau( 261) = (   0.4375491   0.5654852   1.1248001  )
       262           Li  tau( 262) = (   0.4727912   0.3870776   1.1200078  )
       263           Li  tau( 263) = (   0.5000000   0.2886750   0.9626942  )
       264           Li  tau( 264) = (   0.4944433   0.2822067   1.1959471  )
       265           Cr  tau( 265) = (   0.6625021   0.3816203   1.2042809  )
       266           Cr  tau( 266) = (   0.5000000   0.4811250   0.9478909  )
       267           N   tau( 267) = (   0.7600297   0.3774978   1.2371603  )
       268           N   tau( 268) = (   0.6518832   0.3830655   1.1033227  )
       269           N   tau( 269) = (   0.4030661   0.4869528   0.9168466  )
       270           N   tau( 270) = (   0.5434199   0.3942641   0.9168466  )
       271           N   tau( 271) = (   0.5535140   0.5621587   0.9168466  )
       272           N   tau( 272) = (   0.6251168   0.2971952   1.2429927  )
       273           N   tau( 273) = (   0.6228785   0.4666858   1.2442551  )
       274           N   tau( 274) = (   0.5000000   0.4811250   1.0497374  )
       275           O   tau( 275) = (   0.4946917   0.2856781   1.0757791  )
       276           Li  tau( 276) = (   0.7520057   0.3702364   1.3699576  )
       277           Li  tau( 277) = (   0.6228551   0.4564491   1.3743991  )
       278           Li  tau( 278) = (   0.6204181   0.3033223   1.3771284  )
       279           Li  tau( 279) = (   0.3973294   0.4832418   1.7838248  )
       280           Li  tau( 280) = (   0.5332773   0.3769508   1.7685657  )
       281           Li  tau( 281) = (   0.5595270   0.5560421   1.7806339  )
       282           Li  tau( 282) = (   0.5747523   0.3822538   1.5372706  )
       283           Li  tau( 283) = (   0.7257244   0.3109559   1.5369258  )
       284           Li  tau( 284) = (   0.7129490   0.4699387   1.5293517  )
       285           Li  tau( 285) = (   0.6094778   0.4862755   1.6077397  )
       286           Li  tau( 286) = (   0.5007422   0.5262281   1.6529736  )
       287           Li  tau( 287) = (   0.4420771   0.3695865   1.6258976  )
       288           Li  tau( 288) = (   0.5035643   0.2960632   1.4527228  )
       289           Li  tau( 289) = (   0.4794986   0.2789427   1.6846959  )
       290           Cr  tau( 290) = (   0.6685099   0.3810943   1.7037946  )
       291           Cr  tau( 291) = (   0.4991233   0.4701234   1.4517994  )
       292           N   tau( 292) = (   0.7723142   0.3869332   1.7308473  )
       293           N   tau( 293) = (   0.6689131   0.3770127   1.5985468  )
       294           N   tau( 294) = (   0.3988092   0.4786792   1.4426182  )
       295           N   tau( 295) = (   0.5455665   0.3865142   1.4166116  )
       296           N   tau( 296) = (   0.5388515   0.5503341   1.4048415  )
       297           N   tau( 297) = (   0.6102726   0.3018694   1.7443766  )
       298           N   tau( 298) = (   0.6134811   0.4626223   1.7245999  )
       299           N   tau( 299) = (   0.5085471   0.4798072   1.5546687  )
       300           O   tau( 300) = (   0.4798463   0.2872555   1.5614012  )

   Crystallographic axes

     site n.     atom                  positions (cryst. coord.)
         1           Li  tau(   1) = (  0.3097346  0.1512218  0.3321863  )
         2           Li  tau(   2) = (  0.2325188  0.3133799  0.3321863  )
         3           Li  tau(   3) = (  0.1244139  0.0353984  0.3321863  )
         4           Li  tau(   4) = (  0.0301080  0.3608004  0.4864026  )
         5           Li  tau(   5) = (  0.1133378  0.2032946  0.4883648  )
         6           Li  tau(   6) = (  0.2091865  0.4640946  0.4883094  )
         7           Li  tau(   7) = (  0.1192194  0.1566758  0.3916786  )
         8           Li  tau(   8) = (  0.2288830  0.0221536  0.3916786  )
         9           Li  tau(   9) = (  0.3185643  0.3211711  0.3916786  )
        10           Li  tau(  10) = (  0.2173558  0.3711121  0.4307969  )
        11           Li  tau(  11) = (  0.0911970  0.4712319  0.4285734  )
        12           Li  tau(  12) = (  0.0161489  0.1931438  0.4194959  )
        13           Li  tau(  13) = (  0.0000000  0.0000000  0.3648003  )
        14           Li  tau(  14) = (  0.0279660  0.0479504  0.4486862  )
        15           Cr  tau(  15) = (  0.2274218  0.1837138  0.4578235  )
        16           Cr  tau(  16) = (  0.1111111  0.3333332  0.3591908  )
        17           N   tau(  17) = (  0.3026205  0.1463813  0.4684934  )
        18           N   tau(  18) = (  0.2243063  0.1819919  0.4198148  )
        19           N   tau(  19) = (  0.0175419  0.3434273  0.3474270  )
        20           N   tau(  20) = (  0.1043816  0.1828847  0.3474270  )
        21           N   tau(  21) = (  0.2114100  0.4736876  0.3474270  )
        22           N   tau(  22) = (  0.1285211  0.0429162  0.4760141  )
        23           N   tau(  23) = (  0.2387122  0.3261918  0.4727276  )
        24           N   tau(  24) = (  0.1111111  0.3333332  0.3977842  )
        25           O   tau(  25) = (  0.0033273  0.0063720  0.4043814  )
        26           Li  tau(  26) = (  0.2916576  0.1491204  0.5187399  )
        27           Li  tau(  27) = (  0.2314676  0.3050421  0.5190499  )
        28           Li  tau(  28) = (  0.0994878  0.0010116  0.5174820  )
        29           Li  tau(  29) = (  0.0192985  0.3423189  0.6764863  )
        30           Li  tau(  30) = (  0.0975383  0.1884510  0.6771351  )
        31           Li  tau(  31) = (  0.2121225  0.4810192  0.6776733  )
        32           Li  tau(  32) = (  0.1097368  0.1700738  0.5805819  )
        33           Li  tau(  33) = (  0.2269142  0.0238001  0.5877195  )
        34           Li  tau(  34) = (  0.3037962  0.2726483  0.5733048  )
        35           Li  tau(  35) = (  0.2172725  0.3494653  0.6128039  )
        36           Li  tau(  36) = (  0.1046054  0.4747798  0.6130320  )
        37           Li  tau(  37) = (  0.0188136  0.1965530  0.6210953  )
        38           Li  tau(  38) = (  0.9806430  0.9781443  0.5514956  )
        39           Li  tau(  39) = (  0.9988008  0.0028792  0.6461377  )
        40           Cr  tau(  40) = (  0.2197502  0.1677102  0.6482748  )
        41           Cr  tau(  41) = (  0.1091955  0.3330589  0.5493342  )
        42           N   tau(  42) = (  0.3100958  0.1604757  0.6606875  )
        43           N   tau(  43) = (  0.2213275  0.1570503  0.6078544  )
        44           N   tau(  44) = (  0.0184321  0.3476392  0.5375438  )
        45           N   tau(  45) = (  0.0951516  0.1869580  0.5347667  )
        46           N   tau(  46) = (  0.2091043  0.4669238  0.5376036  )
        47           N   tau(  47) = (  0.1125567  0.0211603  0.6619919  )
        48           N   tau(  48) = (  0.2187758  0.3145622  0.6615578  )
        49           N   tau(  49) = (  0.1158877  0.3408086  0.5873961  )
        50           O   tau(  50) = (  0.9982281  0.0206921  0.5958624  )
        51           Li  tau(  51) = (  0.3097348  0.6512226  0.3321863  )
        52           Li  tau(  52) = (  0.2325186  0.8133797  0.3321863  )
        53           Li  tau(  53) = (  0.1244139  0.5353989  0.3321863  )
        54           Li  tau(  54) = (  0.0169832  0.8390653  0.4854681  )
        55           Li  tau(  55) = (  0.0901677  0.6936983  0.4855832  )
        56           Li  tau(  56) = (  0.2037698  0.9776361  0.4845535  )
        57           Li  tau(  57) = (  0.1192194  0.6566756  0.3916786  )
        58           Li  tau(  58) = (  0.2288831  0.5221537  0.3916786  )
        59           Li  tau(  59) = (  0.3185642  0.8211709  0.3916786  )
        60           Li  tau(  60) = (  0.2050557  0.8468282  0.4195136  )
        61           Li  tau(  61) = (  0.1227128  0.9710262  0.4333126  )
        62           Li  tau(  62) = (  0.0182467  0.6899196  0.4190242  )
        63           Li  tau(  63) = ( -0.0000001  0.4999998  0.3648003  )
        64           Li  tau(  64) = (  0.9770926  0.4893632  0.4508875  )
        65           Cr  tau(  65) = (  0.2107710  0.6594623  0.4579143  )
        66           Cr  tau(  66) = (  0.1111110  0.8333330  0.3591908  )
        67           N   tau(  67) = (  0.3096340  0.6625810  0.4744129  )
        68           N   tau(  68) = (  0.2119725  0.6622672  0.4200695  )
        69           N   tau(  69) = (  0.0175418  0.8434271  0.3474270  )
        70           N   tau(  70) = (  0.1043818  0.6828855  0.3474270  )
        71           N   tau(  71) = (  0.2114098  0.9736874  0.3474270  )
        72           N   tau(  72) = (  0.1302277  0.5108379  0.4677360  )
        73           N   tau(  73) = (  0.2304865  0.8247765  0.4698686  )
        74           N   tau(  74) = (  0.1111110  0.8333330  0.3977842  )
        75           O   tau(  75) = (  0.9879357  0.4871079  0.4077586  )
        76           Li  tau(  76) = (  0.3166383  0.6536641  0.5184940  )
        77           Li  tau(  77) = (  0.2214864  0.8258768  0.5128048  )
        78           Li  tau(  78) = (  0.1277849  0.5479385  0.5238511  )
        79           Li  tau(  79) = (  0.0342489  0.8366430  0.6675593  )
        80           Li  tau(  80) = (  0.0953228  0.6805523  0.6779789  )
        81           Li  tau(  81) = (  0.1919491  0.9461696  0.6682503  )
        82           Li  tau(  82) = (  0.1290368  0.6515870  0.5769943  )
        83           Li  tau(  83) = (  0.2189209  0.5264659  0.5828983  )
        84           Li  tau(  84) = (  0.3246058  0.8178345  0.5784426  )
        85           Li  tau(  85) = (  0.2160103  0.8439990  0.6110234  )
        86           Li  tau(  86) = (  0.1081656  0.9858960  0.6148879  )
        87           Li  tau(  87) = (  0.0344791  0.6932215  0.6102173  )
        88           Li  tau(  88) = (  0.9978466  0.5019554  0.5531765  )
        89           Li  tau(  89) = (  0.9970350  0.4962423  0.6425368  )
        90           Cr  tau(  90) = (  0.2202309  0.6658920  0.6454490  )
        91           Cr  tau(  91) = (  0.1035046  0.8216294  0.5450180  )
        92           N   tau(  92) = (  0.3187668  0.6595200  0.6584641  )
        93           N   tau(  93) = (  0.2091950  0.6511113  0.6065079  )
        94           N   tau(  94) = (  0.0104019  0.8269235  0.5342818  )
        95           N   tau(  95) = (  0.1022951  0.6703752  0.5339828  )
        96           N   tau(  96) = (  0.1964616  0.9631924  0.5316021  )
        97           N   tau(  97) = (  0.1263690  0.5265802  0.6618169  )
        98           N   tau(  98) = (  0.2279609  0.8132319  0.6562384  )
        99           N   tau(  99) = (  0.1144002  0.8383284  0.5871414  )
       100           O   tau( 100) = (  0.9981401  0.4818321  0.5970162  )
       101           Li  tau( 101) = (  0.6430655  0.1512218  0.3321863  )
       102           Li  tau( 102) = (  0.5658521  0.3133799  0.3321863  )
       103           Li  tau( 103) = (  0.4577472  0.0353984  0.3321863  )
       104           Li  tau( 104) = (  0.3607919  0.3563303  0.4854747  )
       105           Li  tau( 105) = (  0.4359201  0.1850519  0.4957504  )
       106           Li  tau( 106) = (  0.5347617  0.4472741  0.4875144  )
       107           Li  tau( 107) = (  0.4525527  0.1566758  0.3916786  )
       108           Li  tau( 108) = (  0.5622164  0.0221536  0.3916786  )
       109           Li  tau( 109) = (  0.6518976  0.3211711  0.3916786  )
       110           Li  tau( 110) = (  0.5523853  0.3550650  0.4227358  )
       111           Li  tau( 111) = (  0.4571789  0.4937998  0.4285956  )
       112           Li  tau( 112) = (  0.3510103  0.1983670  0.4241465  )
       113           Li  tau( 113) = (  0.3333333  0.0000000  0.3648003  )
       114           Li  tau( 114) = (  0.3303203  0.9941589  0.4535295  )
       115           Cr  tau( 115) = (  0.5431581  0.1712966  0.4592542  )
       116           Cr  tau( 116) = (  0.4444444  0.3333332  0.3591908  )
       117           N   tau( 117) = (  0.6353824  0.1577427  0.4710911  )
       118           N   tau( 118) = (  0.5508618  0.1647899  0.4175936  )
       119           N   tau( 119) = (  0.3508752  0.3434273  0.3474270  )
       120           N   tau( 120) = (  0.4377148  0.1828847  0.3474270  )
       121           N   tau( 121) = (  0.5447432  0.4736876  0.3474270  )
       122           N   tau( 122) = (  0.4566930  0.0344886  0.4726856  )
       123           N   tau( 123) = (  0.5453700  0.3215183  0.4734341  )
       124           N   tau( 124) = (  0.4444444  0.3333332  0.3977842  )
       125           O   tau( 125) = (  0.3383180  0.9891848  0.4075815  )
       126           Li  tau( 126) = (  0.6209609  0.9297308  0.5587705  )
       127           Li  tau( 127) = (  0.5704513  0.3082266  0.5280056  )
       128           Li  tau( 128) = (  0.6560115  0.1210692  0.5194596  )
       129           Li  tau( 129) = (  0.3477862  0.3332188  0.6702589  )
       130           Li  tau( 130) = (  0.4338202  0.1591315  0.6791194  )
       131           Li  tau( 131) = (  0.5396163  0.4624183  0.6702567  )
       132           Li  tau( 132) = (  0.4537008  0.1899745  0.5796960  )
       133           Li  tau( 133) = (  0.4266463  0.9705140  0.6115483  )
       134           Li  tau( 134) = (  0.6556561  0.3351552  0.5910280  )
       135           Li  tau( 135) = (  0.5218732  0.3264722  0.6091100  )
       136           Li  tau( 136) = (  0.4183456  0.4793096  0.6122215  )
       137           Li  tau( 137) = (  0.3478372  0.1853131  0.6089129  )
       138           Li  tau( 138) = (  0.4643398  0.0464624  0.5242741  )
       139           Li  tau( 139) = (  0.3441658  0.0286491  0.6410774  )
       140           Cr  tau( 140) = (  0.5558761  0.1637028  0.6417396  )
       141           Cr  tau( 141) = (  0.4345687  0.3336359  0.5491172  )
       142           N   tau( 142) = (  0.6531978  0.1751492  0.6554788  )
       143           N   tau( 143) = (  0.5406686  0.1585332  0.6039058  )
       144           N   tau( 144) = (  0.3432397  0.3442178  0.5352805  )
       145           N   tau( 145) = (  0.4276701  0.1751117  0.5360711  )
       146           N   tau( 146) = (  0.5434670  0.4723960  0.5380554  )
       147           N   tau( 147) = (  0.4531550  0.0193021  0.6543383  )
       148           N   tau( 148) = (  0.5499293  0.3099970  0.6552396  )
       149           N   tau( 149) = (  0.4284016  0.3331125  0.5860275  )
       150           O   tau( 150) = (  0.3301110  0.0027883  0.5946954  )
       151           Li  tau( 151) = (  0.6430682  0.6512226  0.3321863  )
       152           Li  tau( 152) = (  0.5658520  0.8133797  0.3321863  )
       153           Li  tau( 153) = (  0.4577474  0.5353989  0.3321863  )
       154           Li  tau( 154) = (  0.3640663  0.8580307  0.4875210  )
       155           Li  tau( 155) = (  0.4201152  0.6789631  0.4803170  )
       156           Li  tau( 156) = (  0.5388450  0.9782647  0.4848569  )
       157           Li  tau( 157) = (  0.4525527  0.6566756  0.3916786  )
       158           Li  tau( 158) = (  0.5622164  0.5221537  0.3916786  )
       159           Li  tau( 159) = (  0.6518976  0.8211709  0.3916786  )
       160           Li  tau( 160) = (  0.5512415  0.8342693  0.4221822  )
       161           Li  tau( 161) = (  0.4336115  0.9928491  0.4230126  )
       162           Li  tau( 162) = (  0.3670822  0.7067400  0.4218943  )
       163           Li  tau( 163) = (  0.3333333  0.4999998  0.3648003  )
       164           Li  tau( 164) = (  0.3143493  0.5108622  0.4515984  )
       165           Cr  tau( 165) = (  0.5627628  0.6734069  0.4592453  )
       166           Cr  tau( 166) = (  0.4444443  0.8333330  0.3591908  )
       167           N   tau( 167) = (  0.6639451  0.6759324  0.4653310  )
       168           N   tau( 168) = (  0.5451954  0.6580016  0.4199277  )
       169           N   tau( 169) = (  0.3508751  0.8434271  0.3474270  )
       170           N   tau( 170) = (  0.4377151  0.6828855  0.3474270  )
       171           N   tau( 171) = (  0.5447431  0.9736874  0.3474270  )
       172           N   tau( 172) = (  0.4720615  0.5354252  0.4690692  )
       173           N   tau( 173) = (  0.5680166  0.8195736  0.4703735  )
       174           N   tau( 174) = (  0.4444443  0.8333330  0.3977842  )
       175           O   tau( 175) = (  0.3283561  0.5007984  0.4030660  )
       176           Li  tau( 176) = (  0.6413443  0.6306083  0.5153361  )
       177           Li  tau( 177) = (  0.5678232  0.8146349  0.5150482  )
       178           Li  tau( 178) = (  0.4741101  0.5490186  0.5180866  )
       179           Li  tau( 179) = (  0.3405480  0.8418004  0.6655662  )
       180           Li  tau( 180) = (  0.4470382  0.7130605  0.6819651  )
       181           Li  tau( 181) = (  0.5605620  0.9858808  0.6754277  )
       182           Li  tau( 182) = (  0.4522948  0.6832510  0.5827854  )
       183           Li  tau( 183) = (  0.5476260  0.5727304  0.5719207  )
       184           Li  tau( 184) = (  0.6661214  0.8223097  0.5887204  )
       185           Li  tau( 185) = (  0.5264327  0.8282900  0.6183293  )
       186           Li  tau( 186) = (  0.3264530  0.9905554  0.5493076  )
       187           Li  tau( 187) = (  0.3256291  0.6642471  0.6157980  )
       188           Li  tau( 188) = (  0.3344463  0.4978144  0.5551652  )
       189           Li  tau( 189) = (  0.3311117  0.5093914  0.6412568  )
       190           Cr  tau( 190) = (  0.5496717  0.6611932  0.6493932  )
       191           Cr  tau( 191) = (  0.4349473  0.8136925  0.5465173  )
       192           N   tau( 192) = (  0.6378169  0.6367364  0.6580300  )
       193           N   tau( 193) = (  0.5518349  0.6686929  0.6120886  )
       194           N   tau( 194) = (  0.3338262  0.8117712  0.5356194  )
       195           N   tau( 195) = (  0.4436733  0.6845881  0.5341179  )
       196           N   tau( 196) = (  0.5378907  0.9551360  0.5338566  )
       197           N   tau( 197) = (  0.4569913  0.5163485  0.6654311  )
       198           N   tau( 198) = (  0.5696534  0.8197062  0.6631900  )
       199           N   tau( 199) = (  0.4451966  0.8273304  0.5873230  )
       200           O   tau( 200) = (  0.3328442  0.5114472  0.5967483  )
       201           Li  tau( 201) = (  0.9764000  0.1512218  0.3321863  )
       202           Li  tau( 202) = (  0.8991866  0.3133799  0.3321863  )
       203           Li  tau( 203) = (  0.7910799  0.0353984  0.3321863  )
       204           Li  tau( 204) = (  0.6839995  0.3455985  0.4821706  )
       205           Li  tau( 205) = (  0.7640146  0.1765501  0.4782685  )
       206           Li  tau( 206) = (  0.8811597  0.4562598  0.4914209  )
       207           Li  tau( 207) = (  0.7858861  0.1566758  0.3916786  )
       208           Li  tau( 208) = (  0.8955479  0.0221536  0.3916786  )
       209           Li  tau( 209) = (  0.9852327  0.3211711  0.3916786  )
       210           Li  tau( 210) = (  0.8761190  0.3464093  0.4211812  )
       211           Li  tau( 211) = (  0.7754159  0.4794928  0.4195203  )
       212           Li  tau( 212) = (  0.6746144  0.1873973  0.4271738  )
       213           Li  tau( 213) = (  0.6666690  0.0000000  0.3648003  )
       214           Li  tau( 214) = (  0.6611095  0.9933765  0.4599938  )
       215           Cr  tau( 215) = (  0.8998045  0.1771473  0.4577261  )
       216           Cr  tau( 216) = (  0.7777800  0.3333332  0.3591908  )
       217           N   tau( 217) = (  0.9993336  0.1691608  0.4667726  )
       218           N   tau( 218) = (  0.8943666  0.1776474  0.4183864  )
       219           N   tau( 219) = (  0.6842085  0.3434273  0.3474270  )
       220           N   tau( 220) = (  0.7710469  0.1828847  0.3474270  )
       221           N   tau( 221) = (  0.8780741  0.4736876  0.3474270  )
       222           N   tau( 222) = (  0.8079407  0.0458662  0.4767360  )
       223           N   tau( 223) = (  0.9067833  0.3270006  0.4741693  )
       224           N   tau( 224) = (  0.7777800  0.3333332  0.3977842  )
       225           O   tau( 225) = (  0.6675921  0.0217220  0.4127149  )
       226           Li  tau( 226) = (  0.9760191  0.1688389  0.5163238  )
       227           Li  tau( 227) = (  0.8858733  0.2819083  0.5271619  )
       228           Li  tau( 228) = (  0.7849523  0.0334962  0.5283733  )
       229           Li  tau( 229) = (  0.6893503  0.3658606  0.6726617  )
       230           Li  tau( 230) = (  0.7614545  0.1868932  0.6719287  )
       231           Li  tau( 231) = (  0.8606151  0.4564106  0.6745795  )
       232           Li  tau( 232) = (  0.7819425  0.1153378  0.5770563  )
       233           Li  tau( 233) = (  0.9094292  0.0416014  0.5801190  )
       234           Li  tau( 234) = (  0.9876675  0.3295626  0.5870506  )
       235           Li  tau( 235) = (  0.8800352  0.3663282  0.6138027  )
       236           Li  tau( 236) = (  0.7663061  0.4993611  0.6142811  )
       237           Li  tau( 237) = (  0.7015666  0.1542575  0.6126445  )
       238           Li  tau( 238) = (  0.5519704  0.0035062  0.5808831  )
       239           Li  tau( 239) = (  0.6887716  0.9652169  0.6338845  )
       240           Cr  tau( 240) = (  0.8825946  0.1589523  0.6485051  )
       241           Cr  tau( 241) = (  0.7742578  0.3421225  0.5488116  )
       242           N   tau( 242) = (  0.9782496  0.1543334  0.6643858  )
       243           N   tau( 243) = (  0.8965911  0.1799553  0.6095308  )
       244           N   tau( 244) = (  0.6931420  0.3555934  0.5283024  )
       245           N   tau( 245) = (  0.7596937  0.1821367  0.5406154  )
       246           N   tau( 246) = (  0.8851099  0.4963203  0.5391582  )
       247           N   tau( 247) = (  0.7869951  0.9989104  0.6556825  )
       248           N   tau( 248) = (  0.8785421  0.3091811  0.6582515  )
       249           N   tau( 249) = (  0.7773746  0.3256999  0.5876552  )
       250           O   tau( 250) = (  0.6525629  0.9794905  0.5953531  )
       251           Li  tau( 251) = (  0.9764026  0.6512226  0.3321863  )
       252           Li  tau( 252) = (  0.8991830  0.8133797  0.3321863  )
       253           Li  tau( 253) = (  0.7910824  0.5353989  0.3321863  )
       254           Li  tau( 254) = (  0.7076812  0.8504601  0.4853795  )
       255           Li  tau( 255) = (  0.7484691  0.6396405  0.4831051  )
       256           Li  tau( 256) = (  0.8966634  0.9628159  0.4887279  )
       257           Li  tau( 257) = (  0.7858860  0.6566756  0.3916786  )
       258           Li  tau( 258) = (  0.8955503  0.5221537  0.3916786  )
       259           Li  tau( 259) = (  0.9852291  0.8211709  0.3916786  )
       260           Li  tau( 260) = (  0.8836097  0.8536385  0.4280087  )
       261           Li  tau( 261) = (  0.7640321  0.9794490  0.4262282  )
       262           Li  tau( 262) = (  0.6962706  0.6704380  0.4244123  )
       263           Li  tau( 263) = (  0.6666666  0.4999998  0.3648003  )
       264           Li  tau( 264) = (  0.6573754  0.4887963  0.4531884  )
       265           Cr  tau( 265) = (  0.8828306  0.6609857  0.4563464  )
       266           Cr  tau( 266) = (  0.7777776  0.8333330  0.3591908  )
       267           N   tau( 267) = (  0.9779782  0.6538453  0.4688056  )
       268           N   tau( 268) = (  0.8730462  0.6634890  0.4180896  )
       269           N   tau( 269) = (  0.6842084  0.8434271  0.3474270  )
       270           N   tau( 270) = (  0.7710484  0.6828855  0.3474270  )
       271           N   tau( 271) = (  0.8780764  0.9736874  0.3474270  )
       272           N   tau( 272) = (  0.7967026  0.5147573  0.4710158  )
       273           N   tau( 273) = (  0.8923197  0.8083235  0.4714941  )
       274           N   tau( 274) = (  0.7777776  0.8333330  0.3977842  )
       275           O   tau( 275) = (  0.6596280  0.4948090  0.4076523  )
       276           Li  tau( 276) = (  0.9657617  0.6412682  0.5191274  )
       277           Li  tau( 277) = (  0.8863862  0.7905931  0.5208105  )
       278           Li  tau( 278) = (  0.7955413  0.5253696  0.5218447  )
       279           Li  tau( 279) = (  0.6763292  0.8369993  0.6759570  )
       280           Li  tau( 280) = (  0.7509099  0.6528979  0.6701747  )
       281           Li  tau( 281) = (  0.8805581  0.9630932  0.6747478  )
       282           Li  tau( 282) = (  0.7954466  0.6620830  0.5825285  )
       283           Li  tau( 283) = (  0.9052549  0.5385915  0.5823978  )
       284           Li  tau( 284) = (  0.9842682  0.8139577  0.5795277  )
       285           Li  tau( 285) = (  0.8902291  0.8422539  0.6092318  )
       286           Li  tau( 286) = (  0.8045601  0.9114537  0.6263726  )
       287           Li  tau( 287) = (  0.6554580  0.6401426  0.6161125  )
       288           Li  tau( 288) = (  0.6744965  0.5127965  0.5504902  )
       289           Li  tau( 289) = (  0.6405462  0.4831429  0.6383934  )
       290           Cr  tau( 290) = (  0.8885348  0.6600747  0.6456306  )
       291           Cr  tau( 291) = (  0.7705492  0.8142775  0.5501403  )
       292           N   tau( 292) = (  0.9957102  0.6701880  0.6558819  )
       293           N   tau( 293) = (  0.8865815  0.6530052  0.6057483  )
       294           N   tau( 294) = (  0.6751747  0.8290967  0.5466612  )
       295           N   tau( 295) = (  0.7687205  0.6694622  0.5368064  )
       296           N   tau( 296) = (  0.8565871  0.9532067  0.5323462  )
       297           N   tau( 297) = (  0.7845570  0.5228532  0.6610086  )
       298           N   tau( 298) = (  0.8805762  0.8012854  0.6535145  )
       299           N   tau( 299) = (  0.7855639  0.8310504  0.5891213  )
       300           O   tau( 300) = (  0.6456933  0.4975411  0.5916725  )

     number of k points=     1  Gaussian smearing, width (Ry)=  0.0147
                       cart. coord. in units 2pi/alat
        k(    1) = (   0.0000000   0.0000000   0.0000000), wk =   2.0000000

                       cryst. coord.
        k(    1) = (   0.0000000   0.0000000   0.0000000), wk =   2.0000000

     Dense  grid:  5457965 G-vectors     FFT dimensions: ( 240, 160, 640)

     Smooth grid:  2970742 G-vectors     FFT dimensions: ( 200, 135, 540)

     Dynamical RAM for                 wfc:    1182.84 MB

     Dynamical RAM for     wfc (w. buffer):    1182.84 MB

     Dynamical RAM for           str. fact:      83.28 MB

     Dynamical RAM for           local pot:       0.00 MB

     Dynamical RAM for          nlocal pot:    3977.76 MB

     Dynamical RAM for                qrad:       7.46 MB

     Dynamical RAM for          rho,v,vnew:     203.09 MB

     Dynamical RAM for               rhoin:      67.70 MB

     Dynamical RAM for            rho*nmix:     333.13 MB

     Dynamical RAM for           G-vectors:      83.74 MB

     Dynamical RAM for          h,s,v(r/c):      63.83 MB

     Dynamical RAM for          <psi|beta>:      17.89 MB

     Dynamical RAM for                 psi:    2365.69 MB

     Dynamical RAM for                hpsi:    2365.69 MB

     Dynamical RAM for                spsi:    2365.69 MB

     Dynamical RAM for      wfcinit/wfcrot:    4336.08 MB

     Dynamical RAM for           addusdens:    7370.47 MB

     Dynamical RAM for          addusforce:   14335.60 MB

     Dynamical RAM for         addusstress:    4184.93 MB

     Estimated static dynamical RAM per process >       5.81 GB

     Estimated max dynamical RAM per process >      20.13 GB

     Estimated total dynamical RAM >      80.52 GB

     Check: negative core charge=   -0.000002

     Initial potential from superposition of free atoms

     starting charge    1292.2742, renormalised to    1392.0000

     negative rho (up, down):  2.604E-02 0.000E+00
     Starting wfcs are 1512 randomized atomic wfcs
     Checking if some PAW data can be deallocated... 

     total cpu time spent up to now is       34.8 secs

     per-process dynamical memory:  1708.7 Mb

     Self-consistent Calculation
[tb_dev] Currently allocated     1.26E+02 Mbytes, locked:    0 /  11
[tb_pin] Currently allocated     0.00E+00 Mbytes, locked:    0 /   0

     iteration #  1     ecut=    90.00 Ry     beta= 0.20
     Davidson diagonalization with overlap

---- Real-time Memory Report at c_bands before calling an iterative solver
         10171 MiB given to the printing process from OS
          1746 MiB allocation reported by mallinfo(arena+hblkhd)
        465833 MiB available memory on the node where the printing process lives
     GPU memory used/free/total (MiB): 16367 / 48601 / 64969
------------------
     ethr =  1.00E-02,  avg # of iterations =  3.0

     negative rho (up, down):  3.998E-02 0.000E+00

     total cpu time spent up to now is       38.5 secs

     total energy              =   -9071.74577251 Ry
     estimated scf accuracy    <     236.67620070 Ry
[tb_dev] Currently allocated     2.41E+01 Mbytes, locked:    0 /   6
[tb_pin] Currently allocated     0.00E+00 Mbytes, locked:    0 /   0

     iteration #  2     ecut=    90.00 Ry     beta= 0.20
     Davidson diagonalization with overlap

---- Real-time Memory Report at c_bands before calling an iterative solver
         10502 MiB given to the printing process from OS
          2013 MiB allocation reported by mallinfo(arena+hblkhd)
        464869 MiB available memory on the node where the printing process lives
     GPU memory used/free/total (MiB): 31249 / 33719 / 64969
------------------
     ethr =  1.00E-02,  avg # of iterations =  4.0

     negative rho (up, down):  6.464E-02 0.000E+00

     total cpu time spent up to now is       42.3 secs

     total energy              =   -9066.64784873 Ry
     estimated scf accuracy    <      47.77470004 Ry
[tb_dev] Currently allocated     2.41E+01 Mbytes, locked:    0 /   6
[tb_pin] Currently allocated     0.00E+00 Mbytes, locked:    0 /   0

     iteration #  3     ecut=    90.00 Ry     beta= 0.20
     Davidson diagonalization with overlap

---- Real-time Memory Report at c_bands before calling an iterative solver
         10505 MiB given to the printing process from OS
          2037 MiB allocation reported by mallinfo(arena+hblkhd)
        464769 MiB available memory on the node where the printing process lives
     GPU memory used/free/total (MiB): 31249 / 33719 / 64969
------------------
     ethr =  3.43E-03,  avg # of iterations =  7.0

     negative rho (up, down):  4.702E-02 0.000E+00

     total cpu time spent up to now is       47.7 secs

     total energy              =   -9094.62082086 Ry
     estimated scf accuracy    <     559.48185611 Ry
[tb_dev] Currently allocated     2.41E+01 Mbytes, locked:    0 /   6
[tb_pin] Currently allocated     0.00E+00 Mbytes, locked:    0 /   0

     iteration #  4     ecut=    90.00 Ry     beta= 0.20
     Davidson diagonalization with overlap

---- Real-time Memory Report at c_bands before calling an iterative solver
         10529 MiB given to the printing process from OS
         -2035 MiB allocation reported by mallinfo(arena+hblkhd)
        464509 MiB available memory on the node where the printing process lives
     GPU memory used/free/total (MiB): 31249 / 33719 / 64969
------------------
     ethr =  3.43E-03,  avg # of iterations =  2.0

     negative rho (up, down):  4.223E-02 0.000E+00

     total cpu time spent up to now is       51.2 secs

     total energy              =   -9091.93360424 Ry
     estimated scf accuracy    <     463.73257036 Ry
[tb_dev] Currently allocated     2.41E+01 Mbytes, locked:    0 /   6
[tb_pin] Currently allocated     0.00E+00 Mbytes, locked:    0 /   0

     iteration #  5     ecut=    90.00 Ry     beta= 0.20
     Davidson diagonalization with overlap

---- Real-time Memory Report at c_bands before calling an iterative solver
         10552 MiB given to the printing process from OS
         -2011 MiB allocation reported by mallinfo(arena+hblkhd)
        464460 MiB available memory on the node where the printing process lives
     GPU memory used/free/total (MiB): 31249 / 33719 / 64969
------------------
     ethr =  3.43E-03,  avg # of iterations =  2.0

     negative rho (up, down):  3.515E-02 0.000E+00

     total cpu time spent up to now is       54.6 secs

     total energy              =   -9091.39142985 Ry
     estimated scf accuracy    <      37.37501626 Ry
[tb_dev] Currently allocated     2.41E+01 Mbytes, locked:    0 /   6
[tb_pin] Currently allocated     0.00E+00 Mbytes, locked:    0 /   0

     iteration #  6     ecut=    90.00 Ry     beta= 0.20
     Davidson diagonalization with overlap

---- Real-time Memory Report at c_bands before calling an iterative solver
         10576 MiB given to the printing process from OS
         -1988 MiB allocation reported by mallinfo(arena+hblkhd)
        464273 MiB available memory on the node where the printing process lives
     GPU memory used/free/total (MiB): 31249 / 33719 / 64969
------------------
     ethr =  2.68E-03,  avg # of iterations =  2.0

     negative rho (up, down):  2.476E-02 0.000E+00

     total cpu time spent up to now is       58.0 secs

     total energy              =   -9105.75761109 Ry
     estimated scf accuracy    <      11.81486956 Ry
[tb_dev] Currently allocated     2.41E+01 Mbytes, locked:    0 /   6
[tb_pin] Currently allocated     0.00E+00 Mbytes, locked:    0 /   0

     iteration #  7     ecut=    90.00 Ry     beta= 0.20
     Davidson diagonalization with overlap

---- Real-time Memory Report at c_bands before calling an iterative solver
         10599 MiB given to the printing process from OS
         -1964 MiB allocation reported by mallinfo(arena+hblkhd)
        464180 MiB available memory on the node where the printing process lives
     GPU memory used/free/total (MiB): 31251 / 33717 / 64969
------------------
     ethr =  8.49E-04,  avg # of iterations = 11.0

     negative rho (up, down):  3.237E-02 0.000E+00

     total cpu time spent up to now is       63.3 secs

     total energy              =   -9086.24190564 Ry
     estimated scf accuracy    <     121.39762237 Ry
[tb_dev] Currently allocated     2.41E+01 Mbytes, locked:    0 /   6
[tb_pin] Currently allocated     0.00E+00 Mbytes, locked:    0 /   0

     iteration #  8     ecut=    90.00 Ry     beta= 0.20
     Davidson diagonalization with overlap

---- Real-time Memory Report at c_bands before calling an iterative solver
         10623 MiB given to the printing process from OS
         -1941 MiB allocation reported by mallinfo(arena+hblkhd)
        464086 MiB available memory on the node where the printing process lives
     GPU memory used/free/total (MiB): 31597 / 33371 / 64969
------------------
     ethr =  8.49E-04,  avg # of iterations =  7.0

     negative rho (up, down):  3.313E-02 0.000E+00

     total cpu time spent up to now is       68.8 secs

     total energy              =   -9095.53973752 Ry
     estimated scf accuracy    <       4.20571721 Ry
[tb_dev] Currently allocated     2.41E+01 Mbytes, locked:    0 /   6
[tb_pin] Currently allocated     0.00E+00 Mbytes, locked:    0 /   0

     iteration #  9     ecut=    90.00 Ry     beta= 0.20
     Davidson diagonalization with overlap

---- Real-time Memory Report at c_bands before calling an iterative solver
         10646 MiB given to the printing process from OS
         -1917 MiB allocation reported by mallinfo(arena+hblkhd)
        464164 MiB available memory on the node where the printing process lives
     GPU memory used/free/total (MiB): 32433 / 32535 / 64969
------------------
     ethr =  3.02E-04,  avg # of iterations = 13.0

     negative rho (up, down):  3.405E-02 0.000E+00

     total cpu time spent up to now is       73.4 secs

     total energy              =   -9095.91030910 Ry
     estimated scf accuracy    <       0.84343610 Ry
[tb_dev] Currently allocated     2.41E+01 Mbytes, locked:    0 /   6
[tb_pin] Currently allocated     0.00E+00 Mbytes, locked:    0 /   0

     iteration # 10     ecut=    90.00 Ry     beta= 0.20
     Davidson diagonalization with overlap

---- Real-time Memory Report at c_bands before calling an iterative solver
         10670 MiB given to the printing process from OS
         -1894 MiB allocation reported by mallinfo(arena+hblkhd)
        463876 MiB available memory on the node where the printing process lives
     GPU memory used/free/total (MiB): 32433 / 32535 / 64969
------------------
     ethr =  6.06E-05,  avg # of iterations = 12.0

     negative rho (up, down):  3.359E-02 0.000E+00

     total cpu time spent up to now is       77.7 secs

     total energy              =   -9095.72046198 Ry
     estimated scf accuracy    <       2.08908464 Ry
[tb_dev] Currently allocated     2.41E+01 Mbytes, locked:    0 /   6
[tb_pin] Currently allocated     0.00E+00 Mbytes, locked:    0 /   0

     iteration # 11     ecut=    90.00 Ry     beta= 0.20
     Davidson diagonalization with overlap

---- Real-time Memory Report at c_bands before calling an iterative solver
         10670 MiB given to the printing process from OS
         -1894 MiB allocation reported by mallinfo(arena+hblkhd)
        463971 MiB available memory on the node where the printing process lives
     GPU memory used/free/total (MiB): 32455 / 32513 / 64969
------------------
     ethr =  6.06E-05,  avg # of iterations =  2.0

     negative rho (up, down):  3.408E-02 0.000E+00

     total cpu time spent up to now is       81.3 secs

     total energy              =   -9095.83832152 Ry
     estimated scf accuracy    <       0.33907083 Ry
[tb_dev] Currently allocated     2.41E+01 Mbytes, locked:    0 /   6
[tb_pin] Currently allocated     0.00E+00 Mbytes, locked:    0 /   0

     iteration # 12     ecut=    90.00 Ry     beta= 0.20
     Davidson diagonalization with overlap

---- Real-time Memory Report at c_bands before calling an iterative solver
         10670 MiB given to the printing process from OS
         -1894 MiB allocation reported by mallinfo(arena+hblkhd)
        463853 MiB available memory on the node where the printing process lives
     GPU memory used/free/total (MiB): 32455 / 32513 / 64969
------------------
     c_bands:  2 eigenvalues not converged
     ethr =  2.44E-05,  avg # of iterations = 20.0

     negative rho (up, down):  3.715E-02 0.000E+00

     total cpu time spent up to now is       86.0 secs

     total energy              =   -9095.72283272 Ry
     estimated scf accuracy    <       0.39834039 Ry
[tb_dev] Currently allocated     2.41E+01 Mbytes, locked:    0 /   6
[tb_pin] Currently allocated     0.00E+00 Mbytes, locked:    0 /   0

     iteration # 13     ecut=    90.00 Ry     beta= 0.20
     Davidson diagonalization with overlap

---- Real-time Memory Report at c_bands before calling an iterative solver
         10670 MiB given to the printing process from OS
         -1894 MiB allocation reported by mallinfo(arena+hblkhd)
        463852 MiB available memory on the node where the printing process lives
     GPU memory used/free/total (MiB): 32455 / 32513 / 64969
------------------
     c_bands:  3 eigenvalues not converged
     ethr =  2.44E-05,  avg # of iterations = 20.0

     negative rho (up, down):  3.729E-02 0.000E+00

     total cpu time spent up to now is       91.1 secs

     total energy              =   -9095.75773555 Ry
     estimated scf accuracy    <       0.42424623 Ry
[tb_dev] Currently allocated     2.41E+01 Mbytes, locked:    0 /   6
[tb_pin] Currently allocated     0.00E+00 Mbytes, locked:    0 /   0

     iteration # 14     ecut=    90.00 Ry     beta= 0.20
     Davidson diagonalization with overlap

---- Real-time Memory Report at c_bands before calling an iterative solver
         10670 MiB given to the printing process from OS
         -1894 MiB allocation reported by mallinfo(arena+hblkhd)
        463852 MiB available memory on the node where the printing process lives
     GPU memory used/free/total (MiB): 32455 / 32513 / 64969
------------------
     c_bands:  3 eigenvalues not converged
     ethr =  2.44E-05,  avg # of iterations = 20.0

     negative rho (up, down):  3.740E-02 0.000E+00

     total cpu time spent up to now is       95.3 secs

     total energy              =   -9095.80831600 Ry
     estimated scf accuracy    <       0.04913542 Ry
[tb_dev] Currently allocated     2.41E+01 Mbytes, locked:    0 /   6
[tb_pin] Currently allocated     0.00E+00 Mbytes, locked:    0 /   0

     iteration # 15     ecut=    90.00 Ry     beta= 0.20
     Davidson diagonalization with overlap

---- Real-time Memory Report at c_bands before calling an iterative solver
         10670 MiB given to the printing process from OS
         -1894 MiB allocation reported by mallinfo(arena+hblkhd)
        463852 MiB available memory on the node where the printing process lives
     GPU memory used/free/total (MiB): 32455 / 32513 / 64969
------------------
     c_bands:  2 eigenvalues not converged
     ethr =  3.53E-06,  avg # of iterations = 40.0

     negative rho (up, down):  3.811E-02 0.000E+00

     total cpu time spent up to now is      102.8 secs

     total energy              =   -9095.80258508 Ry
     estimated scf accuracy    <       0.17927260 Ry
[tb_dev] Currently allocated     2.41E+01 Mbytes, locked:    0 /   6
[tb_pin] Currently allocated     0.00E+00 Mbytes, locked:    0 /   0

     iteration # 16     ecut=    90.00 Ry     beta= 0.20
     Davidson diagonalization with overlap

---- Real-time Memory Report at c_bands before calling an iterative solver
         10670 MiB given to the printing process from OS
         -1894 MiB allocation reported by mallinfo(arena+hblkhd)
        463852 MiB available memory on the node where the printing process lives
     GPU memory used/free/total (MiB): 32651 / 32317 / 64969
------------------
     c_bands:  1 eigenvalues not converged
     ethr =  3.53E-06,  avg # of iterations = 20.0

     negative rho (up, down):  3.877E-02 0.000E+00

     total cpu time spent up to now is      107.0 secs

     total energy              =   -9095.80122599 Ry
     estimated scf accuracy    <       0.03774064 Ry
[tb_dev] Currently allocated     2.41E+01 Mbytes, locked:    0 /   6
[tb_pin] Currently allocated     0.00E+00 Mbytes, locked:    0 /   0

     iteration # 17     ecut=    90.00 Ry     beta= 0.20
     Davidson diagonalization with overlap

---- Real-time Memory Report at c_bands before calling an iterative solver
         10670 MiB given to the printing process from OS
         -1894 MiB allocation reported by mallinfo(arena+hblkhd)
        463852 MiB available memory on the node where the printing process lives
     GPU memory used/free/total (MiB): 32651 / 32317 / 64969
------------------
     c_bands:  5 eigenvalues not converged
     ethr =  2.71E-06,  avg # of iterations = 20.0

     negative rho (up, down):  3.918E-02 0.000E+00

     total cpu time spent up to now is      111.4 secs

     total energy              =   -9095.80508302 Ry
     estimated scf accuracy    <       0.00255875 Ry
[tb_dev] Currently allocated     2.41E+01 Mbytes, locked:    0 /   6
[tb_pin] Currently allocated     0.00E+00 Mbytes, locked:    0 /   0

     iteration # 18     ecut=    90.00 Ry     beta= 0.20
     Davidson diagonalization with overlap

---- Real-time Memory Report at c_bands before calling an iterative solver
         10670 MiB given to the printing process from OS
         -1894 MiB allocation reported by mallinfo(arena+hblkhd)
        463852 MiB available memory on the node where the printing process lives
     GPU memory used/free/total (MiB): 32855 / 32113 / 64969
------------------
     c_bands:  2 eigenvalues not converged
     ethr =  1.84E-07,  avg # of iterations = 20.0

     negative rho (up, down):  3.942E-02 0.000E+00

     total cpu time spent up to now is      116.6 secs

     total energy              =   -9095.80542018 Ry
     estimated scf accuracy    <       0.00259587 Ry
[tb_dev] Currently allocated     2.41E+01 Mbytes, locked:    0 /   6
[tb_pin] Currently allocated     0.00E+00 Mbytes, locked:    0 /   0

     iteration # 19     ecut=    90.00 Ry     beta= 0.20
     Davidson diagonalization with overlap

---- Real-time Memory Report at c_bands before calling an iterative solver
         10670 MiB given to the printing process from OS
         -1894 MiB allocation reported by mallinfo(arena+hblkhd)
        463900 MiB available memory on the node where the printing process lives
     GPU memory used/free/total (MiB): 33097 / 31871 / 64969
------------------
     ethr =  1.84E-07,  avg # of iterations =  2.0

     negative rho (up, down):  3.961E-02 0.000E+00

     total cpu time spent up to now is      120.2 secs

     total energy              =   -9095.80560961 Ry
     estimated scf accuracy    <       0.00040742 Ry
[tb_dev] Currently allocated     2.41E+01 Mbytes, locked:    0 /   6
[tb_pin] Currently allocated     0.00E+00 Mbytes, locked:    0 /   0

     iteration # 20     ecut=    90.00 Ry     beta= 0.20
     Davidson diagonalization with overlap

---- Real-time Memory Report at c_bands before calling an iterative solver
         10670 MiB given to the printing process from OS
         -1894 MiB allocation reported by mallinfo(arena+hblkhd)
        463852 MiB available memory on the node where the printing process lives
     GPU memory used/free/total (MiB): 33097 / 31871 / 64969
------------------
     ethr =  2.93E-08,  avg # of iterations =  5.0

     negative rho (up, down):  3.973E-02 0.000E+00

     total cpu time spent up to now is      124.1 secs

     total energy              =   -9095.80566369 Ry
     estimated scf accuracy    <       0.00030052 Ry
[tb_dev] Currently allocated     2.41E+01 Mbytes, locked:    0 /   6
[tb_pin] Currently allocated     0.00E+00 Mbytes, locked:    0 /   0

     iteration # 21     ecut=    90.00 Ry     beta= 0.20
     Davidson diagonalization with overlap

---- Real-time Memory Report at c_bands before calling an iterative solver
         10670 MiB given to the printing process from OS
         -1894 MiB allocation reported by mallinfo(arena+hblkhd)
        463899 MiB available memory on the node where the printing process lives
     GPU memory used/free/total (MiB): 33097 / 31871 / 64969
------------------
     ethr =  2.16E-08,  avg # of iterations =  2.0

     negative rho (up, down):  3.986E-02 0.000E+00

     total cpu time spent up to now is      127.7 secs

     total energy              =   -9095.80567732 Ry
     estimated scf accuracy    <       0.00011931 Ry
[tb_dev] Currently allocated     2.41E+01 Mbytes, locked:    0 /   6
[tb_pin] Currently allocated     0.00E+00 Mbytes, locked:    0 /   0

     iteration # 22     ecut=    90.00 Ry     beta= 0.20
     Davidson diagonalization with overlap

---- Real-time Memory Report at c_bands before calling an iterative solver
         10670 MiB given to the printing process from OS
         -1894 MiB allocation reported by mallinfo(arena+hblkhd)
        463899 MiB available memory on the node where the printing process lives
     GPU memory used/free/total (MiB): 33097 / 31871 / 64969
------------------
     ethr =  8.57E-09,  avg # of iterations =  5.0

     negative rho (up, down):  3.991E-02 0.000E+00

     total cpu time spent up to now is      131.4 secs

     total energy              =   -9095.80569040 Ry
     estimated scf accuracy    <       0.00003677 Ry
[tb_dev] Currently allocated     2.41E+01 Mbytes, locked:    0 /   6
[tb_pin] Currently allocated     0.00E+00 Mbytes, locked:    0 /   0

     iteration # 23     ecut=    90.00 Ry     beta= 0.20
     Davidson diagonalization with overlap

---- Real-time Memory Report at c_bands before calling an iterative solver
         10670 MiB given to the printing process from OS
         -1894 MiB allocation reported by mallinfo(arena+hblkhd)
        463852 MiB available memory on the node where the printing process lives
     GPU memory used/free/total (MiB): 33097 / 31871 / 64969
------------------
     ethr =  2.64E-09,  avg # of iterations =  4.0

     negative rho (up, down):  3.996E-02 0.000E+00

     total cpu time spent up to now is      135.1 secs

     total energy              =   -9095.80569403 Ry
     estimated scf accuracy    <       0.00001930 Ry
[tb_dev] Currently allocated     2.41E+01 Mbytes, locked:    0 /   6
[tb_pin] Currently allocated     0.00E+00 Mbytes, locked:    0 /   0

     iteration # 24     ecut=    90.00 Ry     beta= 0.20
     Davidson diagonalization with overlap

---- Real-time Memory Report at c_bands before calling an iterative solver
         10670 MiB given to the printing process from OS
         -1894 MiB allocation reported by mallinfo(arena+hblkhd)
        463842 MiB available memory on the node where the printing process lives
     GPU memory used/free/total (MiB): 33097 / 31871 / 64969
------------------
     ethr =  1.39E-09,  avg # of iterations =  2.0

     negative rho (up, down):  4.000E-02 0.000E+00

     total cpu time spent up to now is      138.6 secs

     total energy              =   -9095.80569511 Ry
     estimated scf accuracy    <       0.00000886 Ry
[tb_dev] Currently allocated     2.41E+01 Mbytes, locked:    0 /   6
[tb_pin] Currently allocated     0.00E+00 Mbytes, locked:    0 /   0

     iteration # 25     ecut=    90.00 Ry     beta= 0.20
     Davidson diagonalization with overlap

---- Real-time Memory Report at c_bands before calling an iterative solver
         10670 MiB given to the printing process from OS
         -1894 MiB allocation reported by mallinfo(arena+hblkhd)
        463842 MiB available memory on the node where the printing process lives
     GPU memory used/free/total (MiB): 33097 / 31871 / 64969
------------------
     ethr =  6.37E-10,  avg # of iterations =  2.0

     negative rho (up, down):  4.002E-02 0.000E+00

     total cpu time spent up to now is      142.4 secs

     total energy              =   -9095.80569626 Ry
     estimated scf accuracy    <       0.00000260 Ry
[tb_dev] Currently allocated     2.41E+01 Mbytes, locked:    0 /   6
[tb_pin] Currently allocated     0.00E+00 Mbytes, locked:    0 /   0

     iteration # 26     ecut=    90.00 Ry     beta= 0.20
     Davidson diagonalization with overlap

---- Real-time Memory Report at c_bands before calling an iterative solver
         10670 MiB given to the printing process from OS
         -1894 MiB allocation reported by mallinfo(arena+hblkhd)
        463842 MiB available memory on the node where the printing process lives
     GPU memory used/free/total (MiB): 33097 / 31871 / 64969
------------------
     ethr =  1.87E-10,  avg # of iterations =  4.0

     negative rho (up, down):  4.004E-02 0.000E+00

     total cpu time spent up to now is      146.3 secs

     total energy              =   -9095.80569667 Ry
     estimated scf accuracy    <       0.00000087 Ry
[tb_dev] Currently allocated     2.41E+01 Mbytes, locked:    0 /   6
[tb_pin] Currently allocated     0.00E+00 Mbytes, locked:    0 /   0

     iteration # 27     ecut=    90.00 Ry     beta= 0.20
     Davidson diagonalization with overlap

---- Real-time Memory Report at c_bands before calling an iterative solver
         10670 MiB given to the printing process from OS
         -1894 MiB allocation reported by mallinfo(arena+hblkhd)
        463842 MiB available memory on the node where the printing process lives
     GPU memory used/free/total (MiB): 33097 / 31871 / 64969
------------------
     ethr =  6.27E-11,  avg # of iterations =  4.0

     negative rho (up, down):  4.005E-02 0.000E+00

     total cpu time spent up to now is      150.2 secs

     total energy              =   -9095.80569682 Ry
     estimated scf accuracy    <       0.00000048 Ry
[tb_dev] Currently allocated     2.41E+01 Mbytes, locked:    0 /   6
[tb_pin] Currently allocated     0.00E+00 Mbytes, locked:    0 /   0

     iteration # 28     ecut=    90.00 Ry     beta= 0.20
     Davidson diagonalization with overlap

---- Real-time Memory Report at c_bands before calling an iterative solver
         10670 MiB given to the printing process from OS
         -1894 MiB allocation reported by mallinfo(arena+hblkhd)
        463840 MiB available memory on the node where the printing process lives
     GPU memory used/free/total (MiB): 33097 / 31871 / 64969
------------------
     ethr =  3.42E-11,  avg # of iterations =  4.0

     negative rho (up, down):  4.006E-02 0.000E+00

     total cpu time spent up to now is      154.1 secs

     total energy              =   -9095.80569693 Ry
     estimated scf accuracy    <       0.00000017 Ry
[tb_dev] Currently allocated     2.41E+01 Mbytes, locked:    0 /   6
[tb_pin] Currently allocated     0.00E+00 Mbytes, locked:    0 /   0

     iteration # 29     ecut=    90.00 Ry     beta= 0.20
     Davidson diagonalization with overlap

---- Real-time Memory Report at c_bands before calling an iterative solver
         10670 MiB given to the printing process from OS
         -1894 MiB allocation reported by mallinfo(arena+hblkhd)
        463839 MiB available memory on the node where the printing process lives
     GPU memory used/free/total (MiB): 33097 / 31871 / 64969
------------------
[...]
     atom  143 type  1   force =     0.00000053   -0.00001236   -0.00001074
     atom  144 type  1   force =    -0.00004375    0.00000419   -0.00000842
     atom  145 type  1   force =     0.00003005   -0.00002883   -0.00001414
     atom  146 type  1   force =     0.00001887    0.00002728   -0.00000008
     atom  147 type  1   force =     0.00000247   -0.00001961    0.00001403
     atom  148 type  1   force =    -0.00000188    0.00000653    0.00001863
     atom  149 type  1   force =     0.00000031   -0.00000347    0.00003357
     atom  150 type  4   force =     0.00000948    0.00000570    0.00001058
     atom  151 type  2   force =    -0.00000200   -0.00000762   -0.00000378
     atom  152 type  2   force =     0.00000449    0.00000380   -0.00000474
     atom  153 type  2   force =     0.00000435    0.00000083   -0.00000281
     atom  154 type  2   force =     0.00000067    0.00000129   -0.00000186
     atom  155 type  2   force =     0.00000042   -0.00000098   -0.00000029
     atom  156 type  2   force =     0.00000254   -0.00000462    0.00000140
     atom  157 type  2   force =     0.00000257   -0.00001839    0.00000831
     atom  158 type  2   force =     0.00000697    0.00000761    0.00000530
     atom  159 type  2   force =    -0.00001282    0.00000117    0.00000634
     atom  160 type  2   force =     0.00001318    0.00000458    0.00000912
     atom  161 type  2   force =    -0.00000092    0.00001205   -0.00000149
     atom  162 type  2   force =    -0.00000488   -0.00001318    0.00001029
     atom  163 type  2   force =    -0.00000508   -0.00000051    0.00002042
     atom  164 type  2   force =     0.00000293    0.00000238    0.00000116
     atom  165 type  3   force =    -0.00002283    0.00000025   -0.00002839
     atom  166 type  3   force =    -0.00003332    0.00000519   -0.00004603
     atom  167 type  1   force =     0.00002138   -0.00000342   -0.00000396
     atom  168 type  1   force =    -0.00000678   -0.00001081    0.00000419
     atom  169 type  1   force =    -0.00003147   -0.00000344   -0.00000412
     atom  170 type  1   force =     0.00000762   -0.00003353   -0.00000273
     atom  171 type  1   force =     0.00001611    0.00002986   -0.00001070
     atom  172 type  1   force =    -0.00001385   -0.00001491   -0.00000408
     atom  173 type  1   force =    -0.00000694    0.00002460   -0.00000253
     atom  174 type  1   force =    -0.00001020   -0.00000423    0.00003643
     atom  175 type  4   force =     0.00000551   -0.00000834    0.00000075
     atom  176 type  2   force =    -0.00000224    0.00000282    0.00000226
     atom  177 type  2   force =    -0.00000255   -0.00000324    0.00000143
     atom  178 type  2   force =    -0.00000377    0.00000783   -0.00000089
     atom  179 type  2   force =     0.00000083    0.00001481    0.00001016
     atom  180 type  2   force =     0.00000337    0.00000239    0.00001500
     atom  181 type  2   force =     0.00000601    0.00000072    0.00001133
     atom  182 type  2   force =     0.00001097   -0.00001343    0.00000861
     atom  183 type  2   force =    -0.00000639    0.00001295    0.00001225
     atom  184 type  2   force =    -0.00001459    0.00000412    0.00001358
     atom  185 type  2   force =     0.00001540    0.00000139    0.00000831
     atom  186 type  2   force =    -0.00000255   -0.00000245    0.00000442
     atom  187 type  2   force =    -0.00000243   -0.00000019    0.00000247
     atom  188 type  2   force =    -0.00001236    0.00000502    0.00000221
     atom  189 type  2   force =     0.00000995   -0.00000060   -0.00000136
     atom  190 type  3   force =     0.00002396    0.00000177   -0.00000829
     atom  191 type  3   force =     0.00002270   -0.00004764   -0.00001683
     atom  192 type  1   force =     0.00001801    0.00000380    0.00001471
     atom  193 type  1   force =    -0.00000888    0.00001012   -0.00000880
     atom  194 type  1   force =    -0.00002321   -0.00001696    0.00000385
     atom  195 type  1   force =     0.00000710   -0.00002529   -0.00000220
     atom  196 type  1   force =     0.00001352    0.00001660   -0.00000277
     atom  197 type  1   force =    -0.00001074   -0.00000681    0.00001748
     atom  198 type  1   force =    -0.00001046    0.00002132   -0.00000034
     atom  199 type  1   force =     0.00000666   -0.00000364    0.00003285
     atom  200 type  4   force =    -0.00000257   -0.00000092    0.00000702
     atom  201 type  2   force =     0.00000137    0.00000273   -0.00000929
     atom  202 type  2   force =     0.00001322    0.00000304   -0.00000385
     atom  203 type  2   force =    -0.00000746   -0.00000128   -0.00000330
     atom  204 type  2   force =    -0.00000509    0.00000758    0.00000484
     atom  205 type  2   force =    -0.00000971   -0.00001032   -0.00000360
     atom  206 type  2   force =     0.00000185    0.00000664   -0.00000588
     atom  207 type  2   force =     0.00000794   -0.00001322    0.00000477
     atom  208 type  2   force =     0.00000581    0.00001143    0.00000098
     atom  209 type  2   force =    -0.00000930   -0.00000354   -0.00000806
     atom  210 type  2   force =     0.00000918   -0.00000247    0.00000201
     atom  211 type  2   force =    -0.00000926    0.00001993    0.00000956
     atom  212 type  2   force =    -0.00001407   -0.00001764    0.00000116
     atom  213 type  2   force =     0.00000005    0.00000102    0.00000798
     atom  214 type  2   force =    -0.00000259   -0.00000182   -0.00000391
     atom  215 type  3   force =    -0.00000114   -0.00000483   -0.00002130
     atom  216 type  3   force =     0.00001064   -0.00000397   -0.00004709
     atom  217 type  1   force =     0.00004794    0.00000654    0.00001705
     atom  218 type  1   force =    -0.00000162    0.00000362   -0.00005154
     atom  219 type  1   force =    -0.00003508    0.00000245   -0.00000328
     atom  220 type  1   force =     0.00001748   -0.00003045   -0.00000398
     atom  221 type  1   force =     0.00001927    0.00002226   -0.00000732
     atom  222 type  1   force =    -0.00002443   -0.00003523    0.00003338
     atom  223 type  1   force =    -0.00000967    0.00004888    0.00002321
     atom  224 type  1   force =    -0.00000163   -0.00000252    0.00003500
     atom  225 type  4   force =    -0.00000797    0.00000727    0.00002443
     atom  226 type  2   force =     0.00001199    0.00000672    0.00002468
     atom  227 type  2   force =     0.00001006   -0.00000380    0.00001201
     atom  228 type  2   force =    -0.00000479   -0.00000087    0.00000379
     atom  229 type  2   force =     0.00000619   -0.00001392    0.00001503
     atom  230 type  2   force =    -0.00000126    0.00000193    0.00000877
     atom  231 type  2   force =     0.00000722   -0.00001818    0.00001744
     atom  232 type  2   force =    -0.00001082   -0.00000746    0.00000984
     atom  233 type  2   force =     0.00000837   -0.00001132    0.00000976
     atom  234 type  2   force =     0.00001113    0.00000896    0.00000377
     atom  235 type  2   force =    -0.00000193    0.00000451    0.00000490
     atom  236 type  2   force =    -0.00000146   -0.00000596   -0.00000322
     atom  237 type  2   force =     0.00000973   -0.00000903    0.00001080
     atom  238 type  2   force =     0.00000229    0.00000695    0.00001264
     atom  239 type  2   force =    -0.00001124    0.00000463   -0.00000574
     atom  240 type  3   force =    -0.00002763    0.00003274    0.00009817
     atom  241 type  3   force =    -0.00001033   -0.00000947   -0.00001690
     atom  242 type  1   force =    -0.00002249    0.00000842    0.00001157
     atom  243 type  1   force =    -0.00000699    0.00000310    0.00003277
     atom  244 type  1   force =    -0.00004726   -0.00000088   -0.00003455
     atom  245 type  1   force =     0.00002441   -0.00003788    0.00000438
     atom  246 type  1   force =     0.00002748    0.00004119   -0.00000962
     atom  247 type  1   force =    -0.00000679    0.00002551    0.00001005
     atom  248 type  1   force =     0.00000527   -0.00003717    0.00001413
     atom  249 type  1   force =     0.00002143   -0.00001222    0.00006044
     atom  250 type  4   force =     0.00000100    0.00000176    0.00002509
     atom  251 type  2   force =    -0.00000319   -0.00000303   -0.00000377
     atom  252 type  2   force =     0.00000080   -0.00000362   -0.00000476
     atom  253 type  2   force =    -0.00000206    0.00000431   -0.00000474
     atom  254 type  2   force =    -0.00000121    0.00000316   -0.00000070
     atom  255 type  2   force =    -0.00000018   -0.00000374   -0.00000511
     atom  256 type  2   force =     0.00000271   -0.00001300    0.00000410
     atom  257 type  2   force =     0.00001509   -0.00001030    0.00001051
     atom  258 type  2   force =     0.00000710    0.00002294    0.00000665
     atom  259 type  2   force =    -0.00002330    0.00000015    0.00000875
     atom  260 type  2   force =     0.00001744   -0.00001038    0.00000179
     atom  261 type  2   force =    -0.00001537    0.00000591    0.00000312
     atom  262 type  2   force =    -0.00000879   -0.00001409    0.00000631
     atom  263 type  2   force =    -0.00000563    0.00000034    0.00000774
     atom  264 type  2   force =     0.00000028   -0.00000045   -0.00000214
     atom  265 type  3   force =    -0.00000998    0.00000939   -0.00005409
     atom  266 type  3   force =    -0.00001458   -0.00001527   -0.00004003
     atom  267 type  1   force =     0.00001787   -0.00000344    0.00001717
     atom  268 type  1   force =    -0.00000964    0.00000554   -0.00000799
     atom  269 type  1   force =    -0.00003079    0.00000578   -0.00000847
     atom  270 type  1   force =     0.00001199   -0.00002958   -0.00000585
     atom  271 type  1   force =     0.00001583    0.00002438   -0.00000359
     atom  272 type  1   force =     0.00000144   -0.00001425   -0.00000623
     atom  273 type  1   force =     0.00000361    0.00001188    0.00000569
     atom  274 type  1   force =     0.00000117   -0.00000418    0.00003380
     atom  275 type  4   force =    -0.00000250    0.00000180    0.00001720
     atom  276 type  2   force =    -0.00000330   -0.00000407    0.00000423
     atom  277 type  2   force =     0.00000021    0.00000294    0.00000299
     atom  278 type  2   force =    -0.00000339    0.00000457    0.00000136
     atom  279 type  2   force =     0.00000588   -0.00000128    0.00001259
     atom  280 type  2   force =    -0.00002690    0.00001017    0.00001084
     atom  281 type  2   force =     0.00000180    0.00000623    0.00000770
     atom  282 type  2   force =    -0.00000640    0.00000270    0.00000578
     atom  283 type  2   force =     0.00000738   -0.00000842    0.00000254
     atom  284 type  2   force =    -0.00000290    0.00000844    0.00000568
     atom  285 type  2   force =    -0.00000726    0.00002225   -0.00000495
     atom  286 type  2   force =     0.00000518    0.00000546    0.00000577
     atom  287 type  2   force =     0.00000165   -0.00000056    0.00000814
     atom  288 type  2   force =     0.00000073   -0.00000363    0.00000094
     atom  289 type  2   force =    -0.00000514    0.00000675    0.00000714
     atom  290 type  3   force =    -0.00001462   -0.00000553    0.00003084
     atom  291 type  3   force =    -0.00001077    0.00000230    0.00002930
     atom  292 type  1   force =     0.00007560    0.00000180    0.00004174
     atom  293 type  1   force =    -0.00001262   -0.00001384   -0.00007013
     atom  294 type  1   force =    -0.00001575    0.00000923    0.00001766
     atom  295 type  1   force =     0.00001491   -0.00001749   -0.00000012
     atom  296 type  1   force =     0.00001402    0.00002877   -0.00000383
     atom  297 type  1   force =    -0.00004606   -0.00006298    0.00004224
     atom  298 type  1   force =    -0.00006473    0.00007245    0.00004146
     atom  299 type  1   force =    -0.00000431    0.00000950    0.00002518
     atom  300 type  4   force =    -0.00000358   -0.00000279    0.00000060

     Total force =     1.038178     Total SCF correction =     0.000470


     Computing stress (Cartesian axis) and pressure


     negative rho (up, down):  4.008E-02 0.000E+00
          total   stress  (Ry/bohr**3)                   (kbar)     P=        4.23
   0.00004984  -0.00000223   0.00000828            7.33       -0.33        1.22
  -0.00000223   0.00006184   0.00000655           -0.33        9.10        0.96
   0.00000828   0.00000655  -0.00002536            1.22        0.96       -3.73

     kinetic stress (kbar)   5335.30     -0.13      0.49
                               -0.13   5335.36      0.75
                                0.49      0.75   5323.57

     local   stress (kbar)-647619.99    139.91    -76.96
                              139.91-647694.05     44.14
                              -76.96     44.14 641296.02

     nonloc. stress (kbar)    958.07     -0.33     -0.12
                               -0.33    957.94      0.27
                               -0.12      0.27    955.16

     hartree stress (kbar) 324446.90    -52.28     29.35
                              -52.28 324472.00    -18.67
                               29.35    -18.67-318597.84

     exc-cor stress (kbar)  -1263.86     -0.20      0.08
                               -0.20  -1263.79     -0.02
                                0.08     -0.02  -1265.76

     corecor stress (kbar)   -292.87      0.02     -0.00
                                0.02   -292.87     -0.01
                               -0.00     -0.01   -292.74

     ewald   stress (kbar) 318443.77    -87.32     48.38
                              -87.32 318494.51    -25.50
                               48.38    -25.50-327422.16

     hubbard stress (kbar)      0.00      0.00      0.00
                                0.00      0.00      0.00
                                0.00      0.00      0.00

     DFT-D   stress (kbar)      0.00      0.00      0.00
                                0.00      0.00      0.00
                                0.00      0.00      0.00

     XDM     stress (kbar)      0.00      0.00      0.00
                                0.00      0.00      0.00
                                0.00      0.00      0.00

     dft-nl  stress (kbar)      0.00      0.00      0.00
                                0.00      0.00      0.00
                                0.00      0.00      0.00

     TS-vdW  stress (kbar)      0.00      0.00      0.00
                                0.00      0.00      0.00
                                0.00      0.00      0.00

     MDB     stress (kbar)      0.00      0.00      0.00
                                0.00      0.00      0.00
                                0.00      0.00      0.00

     3D-RISM stress (kbar)      0.00      0.00      0.00
                                0.00      0.00      0.00
                                0.00      0.00      0.00


     Writing all to output data dir ./tmp/pwscf.save/
 
     init_run     :     29.36s CPU     34.11s WALL (       1 calls)
     electrons    :    116.24s CPU    123.17s WALL (       1 calls)
     forces       :      3.09s CPU      3.29s WALL (       1 calls)
     stress       :     81.02s CPU     83.49s WALL (       1 calls)

     Called by init_run:
     wfcinit      :      3.46s CPU      5.37s WALL (       1 calls)
                                        5.37s GPU  (       1 calls)
     wfcinit:atom :      0.01s CPU      0.01s WALL (       1 calls)
                                        0.01s GPU  (       1 calls)
     wfcinit:wfcr :      1.24s CPU      2.39s WALL (       1 calls)
                                        2.39s GPU  (       1 calls)
     potinit      :     16.29s CPU     16.55s WALL (       1 calls)
     hinit0       :      7.26s CPU      7.49s WALL (       1 calls)

     Called by electrons:
     c_bands      :     74.60s CPU     76.35s WALL (      29 calls)
     sum_band     :     15.84s CPU     16.28s WALL (      29 calls)
     v_of_rho     :      3.24s CPU      3.38s WALL (      30 calls)
     v_h          :      1.77s CPU      1.86s WALL (      30 calls)
     v_xc         :      1.59s CPU      1.66s WALL (      32 calls)
     newd         :      2.51s CPU      4.89s WALL (      30 calls)
                                        4.89s GPU  (      30 calls)
     PAW_pot      :      3.27s CPU      3.29s WALL (      30 calls)
     mix_rho      :      8.04s CPU      8.33s WALL (      29 calls)

     Called by c_bands:
     init_us_2    :      0.46s CPU      0.61s WALL (      59 calls)
     init_us_2:gp :      0.46s CPU      0.61s WALL (      59 calls)
     regterg      :     65.46s CPU     67.01s WALL (      30 calls)

     Called by sum_band:
     sum_band:wei :      0.01s CPU      0.01s WALL (      29 calls)
                                        0.01s GPU  (      29 calls)
     sum_band:loo :     12.48s CPU     12.83s WALL (      29 calls)
                                       12.83s GPU  (      29 calls)
     sum_band:buf :      1.88s CPU      1.90s WALL (      29 calls)
                                        1.90s GPU  (      29 calls)
     sum_band:ini :      0.23s CPU      0.44s WALL (      29 calls)
                                        0.44s GPU  (      29 calls)
     sum_band:cal :      2.05s CPU      2.12s WALL (      29 calls)
                                        2.12s GPU  (      29 calls)
     sum_band:bec :      0.20s CPU      0.20s WALL (      29 calls)
                                        0.20s GPU  (      29 calls)
     addusdens    :      2.06s CPU      2.13s WALL (      29 calls)
                                        2.13s GPU  (      29 calls)
     addusd:skk   :      0.44s CPU      0.44s WALL (     116 calls)
                                        0.44s GPU  (     116 calls)

     Called by *egterg:
     rdiaghg      :      7.25s CPU      7.39s WALL (     293 calls)
                                        7.38s GPU  (     293 calls)
     regterg:over :      4.07s CPU      4.16s WALL (     263 calls)
     regterg:upda :      2.24s CPU      2.30s WALL (     263 calls)
     regterg:last :      4.43s CPU      4.45s WALL (      68 calls)
     h_psi        :     40.79s CPU     43.04s WALL (     294 calls)
                                       43.04s GPU  (     294 calls)
     s_psi        :      1.14s CPU      5.25s WALL (     294 calls)
                                        5.10s GPU  (     294 calls)
     g_psi        :      0.00s CPU      0.21s WALL (     263 calls)
                                        0.20s GPU  (     263 calls)

     Called by h_psi:
     h_psi:calbec :      6.05s CPU      6.36s WALL (     294 calls)
                                        6.35s GPU  (     294 calls)
     vloc_psi     :     29.97s CPU     31.27s WALL (     294 calls)
                                       31.27s GPU  (     294 calls)
     add_vuspsi   :      0.55s CPU      5.20s WALL (     294 calls)
                                        5.20s GPU  (     294 calls)

     General routines
     calbec       :      8.47s CPU      8.98s WALL (     328 calls)
     fft          :      5.76s CPU      7.58s WALL (     348 calls)
                                        0.77s GPU  (     318 calls)
     ffts         :      2.89s CPU      3.44s WALL (      59 calls)
                                        0.05s GPU  (      29 calls)
     fftw         :     18.07s CPU     30.36s WALL (   16588 calls)
                                       30.16s GPU  (   16588 calls)
     interpolate  :      9.21s CPU     11.43s WALL (      30 calls)
 
     Parallel routines

     PAW routines
     PAW_pot      :      3.27s CPU      3.29s WALL (      30 calls)
 
     PWSCF        :   3m52.07s CPU   4m11.59s WALL

 
   This run was terminated on:  14: 0: 6  30Dec2023            

=------------------------------------------------------------------------------=
   JOB DONE.
=------------------------------------------------------------------------------=
