
     Program PWSCF v.7.2 starts on 30Dec2023 at 14:42:30 

     This program is part of the open-source Quantum ESPRESSO suite
     for quantum simulation of materials; please cite
         "P. Giannozzi et al., J. Phys.:Condens. Matter 21 395502 (2009);
         "P. Giannozzi et al., J. Phys.:Condens. Matter 29 465901 (2017);
         "P. Giannozzi et al., J. Chem. Phys. 152 154105 (2020);
          URL http://www.quantum-espresso.org", 
     in publications or presentations arising from this work. More details at
     http://www.quantum-espresso.org/quote

     Parallel version (MPI & OpenMP), running on       4 processor cores
     Number of MPI processes:                 4
     Threads/MPI process:                     1

     MPI processes distributed on     1 nodes
     503944 MiB available memory on the printing compute node when the environment starts
 
     Reading input from input_0019.inp

     Current dimensions of program PWSCF are:
     Max number of different atomic species (ntypx) = 10
     Max number of k-points (npk) =  40000
     Max angular momentum in pseudopotentials (lmaxx) =  4
     file O.pbe-n-kjpaw_psl.0.1.UPF: wavefunction(s)  2P renormalized

     gamma-point specific algorithms are used
 
     R & G space division:  proc/nbgrp/npool/nimage =       4
     Subspace diagonalization in iterative solution of the eigenvalue problem:
     a serial algorithm will be used

 
     Parallelization info
     --------------------
     sticks:   dense  smooth     PW     G-vecs:    dense   smooth      PW
     Min        6485    4324   1079              2728975  1485363  185656
     Max        6486    4326   1080              2728990  1485382  185664
     Sum       25943   17301   4319             10915929  5941483  742635
 
     Using Slab Decomposition
 


     bravais-lattice index     =            0
     lattice parameter (alat)  =      32.3352  a.u.
     unit-cell volume          =   51510.8153 (a.u.)^3
     number of atoms/cell      =          300
     number of atomic types    =            4
     number of electrons       =      1392.00
     number of Kohn-Sham states=          835
     kinetic-energy cutoff     =      90.0000  Ry
     charge density cutoff     =     540.0000  Ry
     scf convergence threshold =      1.0E-07
     mixing beta               =       0.2000
     number of iterations used =            8  plain     mixing
     Exchange-correlation= SLA  PW   PBX  PBC
                           (   1   4   3   4   0   0   0)

     GPU acceleration is ACTIVE.
     GPU-aware MPI enabled


     GPU used by master process:

        Device Number: 0
        Device name: NVIDIA PG506-243
        Compute capability : 80
        Ratio of single to double precision performance  : 2
        Memory Clock Rate (KHz): 1593000
        Memory Bus Width (bits): 4096
        Peak Memory Bandwidth (GB/s): ******

     celldm(1)=  32.335181  celldm(2)=   0.000000  celldm(3)=   0.000000
     celldm(4)=   0.000000  celldm(5)=   0.000000  celldm(6)=   0.000000

     crystal axes: (cart. coord. in units of alat)
               a(1) = (   1.000000   0.000000   0.000000 )  
               a(2) = (  -0.333333   0.577350   0.000000 )  
               a(3) = (   0.000000  -0.000000   2.638962 )  

     reciprocal axes: (cart. coord. in units 2 pi/alat)
               b(1) = (  1.000000  0.577350  0.000000 )  
               b(2) = ( -0.000000  1.732051  0.000000 )  
               b(3) = (  0.000000 -0.000000  0.378937 )  


     PseudoPot. # 1 for N  read from file:
     /leonardo_scratch/large/userexternal/uraucci0/Li_Cr/PPS/N.pbe-n-radius_5.UPF
     MD5 check sum: 16739722b17309cd8fe442a2ace49922
     Pseudo is Ultrasoft + core correction, Zval =  5.0
     Generated using "atomic" code by A. Dal Corso  v.5.1
     Using radial grid of 1085 points,  4 beta functions with: 
                l(1) =   0
                l(2) =   0
                l(3) =   1
                l(4) =   1
     Q(r) pseudized with 0 coefficients 


     PseudoPot. # 2 for Li read from file:
     /leonardo_scratch/large/userexternal/uraucci0/Li_Cr/PPS/li_pbe_v1.4.uspp.F.UPF
     MD5 check sum: e912e257baa3777c20ea3d68f190483c
     Pseudo is Ultrasoft, Zval =  3.0
     Generated by new atomic code, or converted to UPF format
     Using radial grid of  751 points,  5 beta functions with: 
                l(1) =   0
                l(2) =   0
                l(3) =   0
                l(4) =   1
                l(5) =   1
     Q(r) pseudized with 10 coefficients,  rinner =    1.150   1.150   1.150


     PseudoPot. # 3 for Cr read from file:
     /leonardo_scratch/large/userexternal/uraucci0/Li_Cr/PPS/cr_pbe_v1.5.uspp.F.UPF
     MD5 check sum: 0d52af634a40206e4dee301ad30da4bf
     Pseudo is Ultrasoft + core correction, Zval = 14.0
     Generated by new atomic code, or converted to UPF format
     Using radial grid of  857 points,  6 beta functions with: 
                l(1) =   0
                l(2) =   0
                l(3) =   1
                l(4) =   1
                l(5) =   2
                l(6) =   2
     Q(r) pseudized with  8 coefficients,  rinner =    0.950   0.950   0.950
                                                       0.950   0.950

     PseudoPot. # 4 for O  read from file:
     /leonardo_scratch/large/userexternal/uraucci0/Li_Cr/PPS/O.pbe-n-kjpaw_psl.0.1.UPF
     MD5 check sum: 0234752ac141de4415c5fc33072bef88
     Pseudo is Projector augmented-wave + core cor, Zval =  6.0
     Generated using "atomic" code by A. Dal Corso  v.5.0.99 svn rev. 10869
     Shape of augmentation charge: BESSEL
     Using radial grid of 1095 points,  4 beta functions with: 
                l(1) =   0
                l(2) =   0
                l(3) =   1
                l(4) =   1
     Q(r) pseudized with 0 coefficients 


     atomic species   valence    mass     pseudopotential
        N              5.00    14.00674     N ( 1.00)
        Li             3.00     6.94100     Li( 1.00)
        Cr            14.00    51.99610     Cr( 1.00)
        O              6.00    15.99940     O ( 1.00)

     No symmetry found


                                    s                        frac. trans.

      isym =  1     identity                                     

 cryst.   s( 1) = (     1          0          0      )
                  (     0          1          0      )
                  (     0          0          1      )

 cart.    s( 1) = (  1.0000000  0.0000000  0.0000000 )
                  (  0.0000000  1.0000000  0.0000000 )
                  (  0.0000000  0.0000000  1.0000000 )


   Cartesian axes

     site n.     atom                  positions (alat units)
         1           Li  tau(   1) = (   0.2593273   0.0873080   0.8766270  )
         2           Li  tau(   2) = (   0.1280588   0.1809300   0.8766270  )
         3           Li  tau(   3) = (   0.1126144   0.0204373   0.8766270  )
         4           Li  tau(   4) = (  -0.1033046   0.2190381   1.2897754  )
         5           Li  tau(   5) = (   0.0472541   0.1180238   1.2674331  )
         6           Li  tau(   6) = (   0.0295247   0.2518625   1.2696481  )
         7           Li  tau(   7) = (   0.0669942   0.0904568   1.0336250  )
         8           Li  tau(   8) = (   0.2214985   0.0127904   1.0336250  )
         9           Li  tau(   9) = (   0.2115073   0.1854282   1.0336250  )
        10           Li  tau(  10) = (   0.1107525   0.2075064   1.1066130  )
        11           Li  tau(  11) = (  -0.0538673   0.2608018   1.1248702  )
        12           Li  tau(  12) = (  -0.0416926   0.1021212   1.1165305  )
        13           Li  tau(  13) = (   0.0000000   0.0000000   0.9626942  )
        14           Li  tau(  14) = (  -0.3347418   0.5823602   1.1982789  )
        15           Cr  tau(  15) = (   0.1749198   0.0957189   1.2088335  )
        16           Cr  tau(  16) = (  -0.0000000   0.1924500   0.9478909  )
        17           N   tau(  17) = (   0.2662953   0.0884552   1.2456928  )
        18           N   tau(  18) = (   0.1699850   0.1099968   1.0991967  )
        19           N   tau(  19) = (  -0.0969339   0.1982778   0.9168466  )
        20           N   tau(  20) = (   0.0434200   0.1055885   0.9168466  )
        21           N   tau(  21) = (   0.0535141   0.2734837   0.9168466  )
        22           N   tau(  22) = (   0.1179794   0.0172936   1.2430979  )
        23           N   tau(  23) = (   0.1314578   0.1840192   1.2522675  )
        24           N   tau(  24) = (  -0.0000000   0.1924500   1.0497374  )
        25           O   tau(  25) = (   0.6773346   0.5744005   1.0761648  )
        26           Li  tau(  26) = (   0.2329771   0.1019973   1.3722426  )
        27           Li  tau(  27) = (   0.1095094   0.1789061   1.3755621  )
        28           Li  tau(  28) = (   0.1129136   0.0196571   1.3673160  )
        29           Li  tau(  29) = (  -0.0886381   0.2100667   1.7524357  )
        30           Li  tau(  30) = (   0.0360227   0.0992798   1.7845144  )
        31           Li  tau(  31) = (   0.0605451   0.2821114   1.7681858  )
        32           Li  tau(  32) = (   0.0783459   0.1145997   1.5449790  )
        33           Li  tau(  33) = (   0.2065736   0.0123471   1.5265816  )
        34           Li  tau(  34) = (   0.2105196   0.2097815   1.5393511  )
        35           Li  tau(  35) = (   0.1058837   0.2171247   1.6183527  )
        36           Li  tau(  36) = (  -0.0602418   0.2863730   1.6091657  )
        37           Li  tau(  37) = (   0.9489721   0.0950153   1.6207021  )
        38           Li  tau(  38) = (   0.0179666   0.0058760   1.4580527  )
        39           Li  tau(  39) = (   0.6524734   0.5768737   1.6881030  )
        40           Cr  tau(  40) = (   0.1651185   0.1098969   1.7110706  )
        41           Cr  tau(  41) = (  -0.0006418   0.1981235   1.4501689  )
        42           N   tau(  42) = (   0.2597978   0.0995305   1.7617981  )
        43           N   tau(  43) = (   0.1614466   0.1023088   1.6040754  )
        44           N   tau(  44) = (  -0.0935782   0.1953002   1.4033395  )
        45           N   tau(  45) = (   0.0468867   0.1044372   1.4219649  )
        46           N   tau(  46) = (   0.0500788   0.2684600   1.3999674  )
        47           N   tau(  47) = (   0.1080414   0.0249670   1.7418344  )
        48           N   tau(  48) = (   0.1333870   0.1988447   1.7374045  )
        49           N   tau(  49) = (  -0.0017022   0.2024997   1.5442251  )
        50           O   tau(  50) = (   0.0012892   0.0076173   1.5864552  )
        51           Li  tau(  51) = (   0.0926606   0.3759836   0.8766270  )
        52           Li  tau(  52) = (  -0.0386079   0.4696050   0.8766270  )
        53           Li  tau(  53) = (  -0.0540524   0.3091127   0.8766270  )
        54           Li  tau(  54) = (  -0.2581859   0.4879171   1.2887001  )
        55           Li  tau(  55) = (  -0.1321568   0.4066258   1.2639266  )
        56           Li  tau(  56) = (  -0.1128686   0.5605918   1.2852988  )
        57           Li  tau(  57) = (  -0.0996725   0.3791318   1.0336250  )
        58           Li  tau(  58) = (   0.0548319   0.3014656   1.0336250  )
        59           Li  tau(  59) = (   0.0448406   0.4741032   1.0336250  )
        60           Li  tau(  60) = (  -0.0736875   0.4880241   1.1227020  )
        61           Li  tau(  61) = (  -0.2240454   0.5630137   1.1170741  )
        62           Li  tau(  62) = (   0.7963396   0.3953728   1.1171617  )
        63           Li  tau(  63) = (  -0.1666667   0.2886750   0.9626942  )
        64           Li  tau(  64) = (   0.8331404   0.2784424   1.1866958  )
        65           Cr  tau(  65) = (   0.0028986   0.3844611   1.2033108  )
        66           Cr  tau(  66) = (  -0.1666667   0.4811250   0.9478909  )
        67           N   tau(  67) = (   0.1004685   0.3833688   1.2353486  )
        68           N   tau(  68) = (   0.0087440   0.3825308   1.1010727  )
        69           N   tau(  69) = (  -0.2636006   0.4869528   0.9168466  )
        70           N   tau(  70) = (  -0.1232467   0.3942641   0.9168466  )
        71           N   tau(  71) = (  -0.1131527   0.5621587   0.9168466  )
        72           N   tau(  72) = (  -0.0616316   0.3018180   1.2375518  )
        73           N   tau(  73) = (  -0.0377806   0.4675694   1.2379609  )
        74           N   tau(  74) = (  -0.1666667   0.4811250   1.0497374  )
        75           O   tau(  75) = (   0.8300781   0.2830815   1.0736810  )
        76           Li  tau(  76) = (   0.1027185   0.3811761   1.3588945  )
        77           Li  tau(  77) = (  -0.0421871   0.4735965   1.3518990  )
        78           Li  tau(  78) = (  -0.0425041   0.3250270   1.3721608  )
        79           Li  tau(  79) = (  -0.2677908   0.4879925   1.7709267  )
        80           Li  tau(  80) = (  -0.1287116   0.3928668   1.7779631  )
        81           Li  tau(  81) = (  -0.1249708   0.5714118   1.7848008  )
        82           Li  tau(  82) = (  -0.1062162   0.4010393   1.5228062  )
        83           Li  tau(  83) = (   0.0442330   0.3106433   1.5172484  )
        84           Li  tau(  84) = (   0.0346502   0.4716791   1.5495609  )
        85           Li  tau(  85) = (  -0.0906234   0.4946619   1.6197203  )
        86           Li  tau(  86) = (  -0.2251499   0.5701442   1.6314788  )
        87           Li  tau(  87) = (  -0.2169722   0.4056924   1.6026436  )
        88           Li  tau(  88) = (  -0.1585736   0.3008046   1.4531904  )
        89           Li  tau(  89) = (   0.8317320   0.3010314   1.6839186  )
        90           Cr  tau(  90) = (  -0.0074697   0.3948059   1.7010362  )
        91           Cr  tau(  91) = (  -0.1634833   0.4854918   1.4402923  )
        92           N   tau(  92) = (   0.0926016   0.3959946   1.7346987  )
        93           N   tau(  93) = (  -0.0152746   0.3938954   1.6008377  )
        94           N   tau(  94) = (  -0.2655660   0.4922062   1.4050285  )
        95           N   tau(  95) = (  -0.1251075   0.3949836   1.4013992  )
        96           N   tau(  96) = (  -0.1163752   0.5700501   1.4173480  )
        97           N   tau(  97) = (  -0.0520221   0.3099432   1.7300116  )
        98           N   tau(  98) = (  -0.0610156   0.4719912   1.7343480  )
        99           N   tau(  99) = (  -0.1730929   0.4899065   1.5431674  )
       100           O   tau( 100) = (   0.8329417   0.3053081   1.5682272  )
       101           Li  tau( 101) = (   0.5926583   0.0873080   0.8766270  )
       102           Li  tau( 102) = (   0.4613921   0.1809300   0.8766270  )
       103           Li  tau( 103) = (   0.4459477   0.0204373   0.8766270  )
       104           Li  tau( 104) = (   0.2419099   0.2036773   1.2877475  )
       105           Li  tau( 105) = (   0.3612375   0.1192306   1.3047599  )
       106           Li  tau( 106) = (   0.3842133   0.2728437   1.2866605  )
       107           Li  tau( 107) = (   0.4003275   0.0904568   1.0336250  )
       108           Li  tau( 108) = (   0.5548318   0.0127904   1.0336250  )
       109           Li  tau( 109) = (   0.5448406   0.1854282   1.0336250  )
       110           Li  tau( 110) = (   0.4426060   0.1931583   1.1242682  )
       111           Li  tau( 111) = (   0.2756290   0.2702267   1.1126383  )
       112           Li  tau( 112) = (   0.2801355   0.1037196   1.1041233  )
       113           Li  tau( 113) = (   0.3333333   0.0000000   0.9626942  )
       114           Li  tau( 114) = (   0.3397724   0.0094284   1.2062562  )
       115           Cr  tau( 115) = (   0.5017339   0.0892178   1.2065894  )
       116           Cr  tau( 116) = (   0.3333333   0.1924500   0.9478909  )
       117           N   tau( 117) = (   0.5965330   0.0856646   1.2480538  )
       118           N   tau( 118) = (   0.5068026   0.0988374   1.1040006  )
       119           N   tau( 119) = (   0.2363994   0.1982778   0.9168466  )
       120           N   tau( 120) = (   0.3767532   0.1055885   0.9168466  )
       121           N   tau( 121) = (   0.3868473   0.2734837   0.9168466  )
       122           N   tau( 122) = (   0.4452634   0.0062807   1.2378966  )
       123           N   tau( 123) = (   0.4576022   0.1730129   1.2369499  )
       124           N   tau( 124) = (   0.3333333   0.1924500   1.0497374  )
       125           O   tau( 125) = (   0.3449889   0.0042527   1.0894895  )
       126           Li  tau( 126) = (   0.3260965   0.5825654   1.4646508  )
       127           Li  tau( 127) = (   0.4705856   0.1841904   1.3747790  )
       128           Li  tau( 128) = (   0.5928570   0.0843613   1.3796121  )
       129           Li  tau( 129) = (   0.2256707   0.2220490   1.7926379  )
       130           Li  tau( 130) = (   0.3764189   0.0993657   1.7646676  )
       131           Li  tau( 131) = (   0.3805502   0.2799415   1.7903236  )
       132           Li  tau( 132) = (   0.3878759   0.0990080   1.5384102  )
       133           Li  tau( 133) = (   0.0528596   0.4977026   1.7695767  )
       134           Li  tau( 134) = (   0.5547816   0.1886186   1.5208134  )
       135           Li  tau( 135) = (   0.4427007   0.2097324   1.6085170  )
       136           Li  tau( 136) = (   0.3176873   0.2723335   1.6503613  )
       137           Li  tau( 137) = (   0.2787592   0.1194685   1.6173241  )
       138           Li  tau( 138) = (   0.4351325   0.0167128   1.3865200  )
       139           Li  tau( 139) = (   0.4415541  -0.0030929   1.6107904  )
       140           Cr  tau( 140) = (   0.5041376   0.0993516   1.6930881  )
       141           Cr  tau( 141) = (   0.3392184   0.1943231   1.4481527  )
       142           N   tau( 142) = (   0.6014012   0.1158866   1.7267272  )
       143           N   tau( 143) = (   0.4998416   0.1010792   1.5918026  )
       144           N   tau( 144) = (   0.2369768   0.2120403   1.4193759  )
       145           N   tau( 145) = (   0.3829463   0.1102849   1.4188733  )
       146           N   tau( 146) = (   0.3870688   0.2717333   1.4028603  )
       147           N   tau( 147) = (   0.4535721   0.0198522   1.7340850  )
       148           N   tau( 148) = (   0.4476554   0.1781575   1.7248161  )
       149           N   tau( 149) = (   0.3378228   0.2049747   1.5531083  )
       150           O   tau( 150) = (   0.3223205   0.0112651   1.5823234  )
       151           Li  tau( 151) = (   0.4259940   0.3759836   0.8766270  )
       152           Li  tau( 152) = (   0.2947255   0.4696050   0.8766270  )
       153           Li  tau( 153) = (   0.2792811   0.3091127   0.8766270  )
       154           Li  tau( 154) = (   0.0843853   0.4927783   1.2620681  )
       155           Li  tau( 155) = (   0.2079067   0.3810937   1.2805474  )
       156           Li  tau( 156) = (   0.2069915   0.5419910   1.3071911  )
       157           Li  tau( 157) = (   0.2336608   0.3791318   1.0336250  )
       158           Li  tau( 158) = (   0.3881652   0.3014656   1.0336250  )
       159           Li  tau( 159) = (   0.3781739   0.4741032   1.0336250  )
       160           Li  tau( 160) = (   0.2654187   0.4963474   1.1202416  )
       161           Li  tau( 161) = (   0.1246879   0.5688421   1.1101370  )
       162           Li  tau( 162) = (   0.1390956   0.3905829   1.1217085  )
       163           Li  tau( 163) = (   0.1666667   0.2886750   0.9626942  )
       164           Li  tau( 164) = (   0.1653079   0.2823458   1.1959237  )
       165           Cr  tau( 165) = (   0.3314579   0.3854435   1.1983491  )
       166           Cr  tau( 166) = (   0.1666667   0.4811250   0.9478909  )
       167           N   tau( 167) = (   0.4241390   0.3809277   1.2463473  )
       168           N   tau( 168) = (   0.3395369   0.3856545   1.1016396  )
       169           N   tau( 169) = (   0.0697328   0.4869528   0.9168466  )
       170           N   tau( 170) = (   0.2100866   0.3942641   0.9168466  )
       171           N   tau( 171) = (   0.2201806   0.5621587   0.9168466  )
       172           N   tau( 172) = (   0.2787177   0.3117081   1.2328648  )
       173           N   tau( 173) = (   0.2893494   0.4721203   1.2277511  )
       174           N   tau( 174) = (   0.1666667   0.4811250   1.0497374  )
       175           O   tau( 175) = (   0.1815348   0.2923417   1.0792797  )
       176           Li  tau( 176) = (   0.4379430   0.3691955   1.3613315  )
       177           Li  tau( 177) = (   0.2892904   0.4563767   1.3720089  )
       178           Li  tau( 178) = (   0.2813476   0.3205305   1.3767368  )
       179           Li  tau( 179) = (   0.3109519   0.0144401   1.6963433  )
       180           Li  tau( 180) = (   0.2044090   0.4456216   1.7404026  )
       181           Li  tau( 181) = (   0.2405686   0.5858966   1.7838248  )
       182           Li  tau( 182) = (   0.2269786   0.3618693   1.5270491  )
       183           Li  tau( 183) = (   0.3896566   0.3148049   1.5212634  )
       184           Li  tau( 184) = (   0.3813006   0.4765251   1.5431264  )
       185           Li  tau( 185) = (   0.2752854   0.4942879   1.6169910  )
       186           Li  tau( 186) = (   0.3364670   0.0015601   1.4652352  )
       187           Li  tau( 187) = (   0.1064997   0.3940672   1.6230690  )
       188           Li  tau( 188) = (   0.1570781   0.2861357   1.4475157  )
       189           Li  tau( 189) = (   0.1689412   0.2985318   1.6843510  )
       190           Cr  tau( 190) = (   0.3350527   0.3939474   1.6998323  )
       191           Cr  tau( 191) = (   0.1575714   0.4801993   1.4508644  )
       192           N   tau( 192) = (   0.4321444   0.3761974   1.7486312  )
       193           N   tau( 193) = (   0.3282150   0.3773400   1.5981319  )
       194           N   tau( 194) = (   0.0663572   0.4812559   1.4082778  )
       195           N   tau( 195) = (   0.2009065   0.3966772   1.4095343  )
       196           N   tau( 196) = (   0.2139297   0.5597351   1.4271896  )
       197           N   tau( 197) = (   0.2630091   0.3275078   1.7335064  )
       198           N   tau( 198) = (   0.3095352   0.4886751   1.7246291  )
       199           N   tau( 199) = (   0.1465820   0.4864070   1.5491518  )
       200           O   tau( 200) = (   0.1497390   0.2968861   1.5649077  )
       201           Li  tau( 201) = (   0.9259927   0.0873080   0.8766270  )
       202           Li  tau( 202) = (   0.7947266   0.1809300   0.8766270  )
       203           Li  tau( 203) = (   0.7792805   0.0204373   0.8766270  )
       204           Li  tau( 204) = (   0.5802698   0.2025225   1.2831540  )
       205           Li  tau( 205) = (   0.6955100   0.0975569   1.2958183  )
       206           Li  tau( 206) = (   0.7218672   0.2706066   1.2799864  )
       207           Li  tau( 207) = (   0.7336608   0.0904568   1.0336250  )
       208           Li  tau( 208) = (   0.8881634   0.0127904   1.0336250  )
       209           Li  tau( 209) = (   0.8781757   0.1854282   1.0336250  )
       210           Li  tau( 210) = (   0.7508602   0.2144650   1.1229650  )
       211           Li  tau( 211) = (   0.5991804   0.2634965   1.1289962  )
       212           Li  tau( 212) = (   0.6124408   0.1081986   1.1289786  )
       213           Li  tau( 213) = (   0.6666690   0.0000000   0.9626942  )
       214           Li  tau( 214) = (   0.6590306  -0.0093964   1.1998978  )
       215           Cr  tau( 215) = (   0.8285235   0.1001716   1.2097920  )
       216           Cr  tau( 216) = (   0.6666690   0.1924500   0.9478909  )
       217           N   tau( 217) = (   0.9329064   0.0923608   1.2383525  )
       218           N   tau( 218) = (   0.8385521   0.1011996   1.1060519  )
       219           N   tau( 219) = (   0.5697327   0.1982778   0.9168466  )
       220           N   tau( 220) = (   0.7100854   0.1055885   0.9168466  )
       221           N   tau( 221) = (   0.7201783   0.2734837   0.9168466  )
       222           N   tau( 222) = (   0.7708999   0.0275853   1.2388317  )
       223           N   tau( 223) = (   0.7848207   0.1860384   1.2504499  )
       224           N   tau( 224) = (   0.6666690   0.1924500   1.0497374  )
       225           O   tau( 225) = (   0.3361017   0.5793505   1.0874733  )
       226           Li  tau( 226) = (   0.9252447   0.0838792   1.3700218  )
       227           Li  tau( 227) = (   0.7913312   0.1775661   1.3647855  )
       228           Li  tau( 228) = (   0.7836461   0.0149104   1.3704952  )
       229           Li  tau( 229) = (   0.5633333   0.2146129   1.7806865  )
       230           Li  tau( 230) = (   0.7115114   0.1247481   1.7662981  )
       231           Li  tau( 231) = (   0.7409836   0.2882671   1.7845670  )
       232           Li  tau( 232) = (   0.7312296   0.0801646   1.5267394  )
       233           Li  tau( 233) = (   0.5581198   0.5982921   1.5175815  )
       234           Li  tau( 234) = (  -0.1278397   0.1796343   1.5227478  )
       235           Li  tau( 235) = (   0.7569089   0.1957526   1.6060624  )
       236           Li  tau( 236) = (   0.6335032   0.2748255   1.6273060  )
       237           Li  tau( 237) = (   0.6172915   0.1082395   1.6114507  )
       238           Li  tau( 238) = (   0.5561713   0.0099263   1.5326069  )
       239           Li  tau( 239) = (   0.4468559   0.5747546   1.6192644  )
       240           Cr  tau( 240) = (   0.8275709   0.1060263   1.6990433  )
       241           Cr  tau( 241) = (   0.6789826   0.1953137   1.4449910  )
       242           N   tau( 242) = (   0.9298558   0.0966738   1.7302688  )
       243           N   tau( 243) = (   0.8342041   0.1035460   1.6013520  )
       244           N   tau( 244) = (   0.5852829   0.2115126   1.4039590  )
       245           N   tau( 245) = (   0.7188867   0.1025011   1.4180727  )
       246           N   tau( 246) = (   0.7331816   0.2701758   1.4033921  )
       247           N   tau( 247) = (   0.7776558   0.0273795   1.7423195  )
       248           N   tau( 248) = (   0.7890461   0.2023600   1.7173239  )
       249           N   tau( 249) = (   0.6707891   0.1943114   1.5434011  )
       250           O   tau( 250) = (   0.3360222   0.5769608   1.5679584  )
       251           Li  tau( 251) = (   0.7593284   0.3759836   0.8766270  )
       252           Li  tau( 252) = (   0.6280565   0.4696050   0.8766270  )
       253           Li  tau( 253) = (   0.6126161   0.3091127   0.8766270  )
       254           Li  tau( 254) = (   0.4093503   0.4850751   1.2764156  )
       255           Li  tau( 255) = (   0.5410664   0.3894322   1.2935157  )
       256           Li  tau( 256) = (   0.5444455   0.5471111   1.2589298  )
       257           Li  tau( 257) = (   0.5669941   0.3791318   1.0336250  )
       258           Li  tau( 258) = (   0.7214991   0.3014656   1.0336250  )
       259           Li  tau( 259) = (   0.7115055   0.4741032   1.0336250  )
       260           Li  tau( 260) = (   0.5968076   0.4770692   1.1137078  )
       261           Li  tau( 261) = (   0.4459407   0.5763396   1.1342559  )
       262           Li  tau( 262) = (   0.4737105   0.3877952   1.1268280  )
       263           Li  tau( 263) = (   0.5000000   0.2886750   0.9626942  )
       264           Li  tau( 264) = (   0.4847046   0.2885014   1.2083718  )
       265           Cr  tau( 265) = (   0.6651787   0.3856259   1.2068407  )
       266           Cr  tau( 266) = (   0.5000000   0.4811250   0.9478909  )
       267           N   tau( 267) = (   0.7652252   0.3675498   1.2425661  )
       268           N   tau( 268) = (   0.6695618   0.3721276   1.1103708  )
       269           N   tau( 269) = (   0.4030661   0.4869528   0.9168466  )
       270           N   tau( 270) = (   0.5434199   0.3942641   0.9168466  )
       271           N   tau( 271) = (   0.5535140   0.5621587   0.9168466  )
       272           N   tau( 272) = (   0.6101265   0.3003347   1.2362310  )
       273           N   tau( 273) = (   0.6236616   0.4662078   1.2471246  )
       274           N   tau( 274) = (   0.5000000   0.4811250   1.0497374  )
       275           O   tau( 275) = (   0.5012062   0.2831458   1.0726057  )
       276           Li  tau( 276) = (   0.7642259   0.3656136   1.3756615  )
       277           Li  tau( 277) = (   0.6331643   0.4742447   1.3656504  )
       278           Li  tau( 278) = (   0.6155675   0.3043631   1.3618634  )
       279           Li  tau( 279) = (   0.6738222   0.0192478   1.6982543  )
       280           Li  tau( 280) = (   0.5412044   0.3852518   1.7827612  )
       281           Li  tau( 281) = (   0.5751234   0.5860719   1.7737144  )
       282           Li  tau( 282) = (   0.5665535   0.3868087   1.5298017  )
       283           Li  tau( 283) = (   0.7280095   0.3177790   1.5136192  )
       284           Li  tau( 284) = (   0.7190854   0.4828298   1.5421212  )
       285           Li  tau( 285) = (   0.5926232   0.4880930   1.6135021  )
       286           Li  tau( 286) = (   0.4416815   0.4881626   1.7738547  )
       287           Li  tau( 287) = (   0.4495740   0.3821737   1.6097209  )
       288           Li  tau( 288) = (   0.5078861   0.2872549   1.4629794  )
       289           Li  tau( 289) = (   0.4959394   0.3035753   1.6944673  )
       290           Cr  tau( 290) = (   0.6591943   0.3893159   1.6992888  )
       291           Cr  tau( 291) = (   0.5024212   0.4768366   1.4386442  )
       292           N   tau( 292) = (   0.7562895   0.3808447   1.7345409  )
       293           N   tau( 293) = (   0.6712333   0.3779729   1.5927611  )
       294           N   tau( 294) = (   0.4062780   0.4876693   1.4126551  )
       295           N   tau( 295) = (   0.5490519   0.3876690   1.4107558  )
       296           N   tau( 296) = (   0.5621148   0.5471999   1.4062850  )
       297           N   tau( 297) = (   0.6019505   0.3156138   1.7374805  )
       298           N   tau( 298) = (   0.6094661   0.4841324   1.7242434  )
       299           N   tau( 299) = (   0.5032949   0.4771294   1.5414901  )
       300           O   tau( 300) = (   0.4992057   0.2896837   1.5746324  )

   Crystallographic axes

     site n.     atom                  positions (cryst. coord.)
         1           Li  tau(   1) = (  0.3097346  0.1512218  0.3321863  )
         2           Li  tau(   2) = (  0.2325188  0.3133799  0.3321863  )
         3           Li  tau(   3) = (  0.1244139  0.0353984  0.3321863  )
         4           Li  tau(   4) = (  0.0231571  0.3793851  0.4887434  )
         5           Li  tau(   5) = (  0.1153952  0.2044232  0.4802771  )
         6           Li  tau(   6) = (  0.1749376  0.4362387  0.4811164  )
         7           Li  tau(   7) = (  0.1192194  0.1566758  0.3916786  )
         8           Li  tau(   8) = (  0.2288830  0.0221536  0.3916786  )
         9           Li  tau(   9) = (  0.3185643  0.3211711  0.3916786  )
        10           Li  tau(  10) = (  0.2305563  0.3594116  0.4193364  )
        11           Li  tau(  11) = (  0.0967067  0.4517219  0.4262548  )
        12           Li  tau(  12) = (  0.0172671  0.1768791  0.4230946  )
        13           Li  tau(  13) = (  0.0000000  0.0000000  0.3648003  )
        14           Li  tau(  14) = (  0.0014841  1.0086775  0.4540721  )
        15           Cr  tau(  15) = (  0.2301831  0.1657900  0.4580716  )
        16           Cr  tau(  16) = (  0.1111111  0.3333332  0.3591908  )
        17           N   tau(  17) = (  0.3173649  0.1532088  0.4720389  )
        18           N   tau(  18) = (  0.2334917  0.1905201  0.4165261  )
        19           N   tau(  19) = (  0.0175419  0.3434273  0.3474270  )
        20           N   tau(  20) = (  0.1043816  0.1828847  0.3474270  )
        21           N   tau(  21) = (  0.2114100  0.4736876  0.3474270  )
        22           N   tau(  22) = (  0.1279638  0.0299533  0.4710556  )
        23           N   tau(  23) = (  0.2377013  0.3187306  0.4745303  )
        24           N   tau(  24) = (  0.1111111  0.3333332  0.3977842  )
        25           O   tau(  25) = (  1.0089649  0.9948908  0.4077985  )
        26           Li  tau(  26) = (  0.2918652  0.1766645  0.5199933  )
        27           Li  tau(  27) = (  0.2128009  0.3098745  0.5212512  )
        28           Li  tau(  28) = (  0.1242627  0.0340471  0.5181264  )
        29           Li  tau(  29) = (  0.0326440  0.3638462  0.6640625  )
        30           Li  tau(  30) = (  0.0933419  0.1719576  0.6762183  )
        31           Li  tau(  31) = (  0.2234222  0.4886313  0.6700308  )
        32           Li  tau(  32) = (  0.1445101  0.1984925  0.5854495  )
        33           Li  tau(  33) = (  0.2137022  0.0213858  0.5784780  )
        34           Li  tau(  34) = (  0.3316370  0.3633522  0.5833169  )
        35           Li  tau(  35) = (  0.2312407  0.3760710  0.6132535  )
        36           Li  tau(  36) = (  0.1050957  0.4960126  0.6097722  )
        37           Li  tau(  37) = (  1.0038291  0.1645713  0.6141438  )
        38           Li  tau(  38) = (  0.0213591  0.0101776  0.5525099  )
        39           Li  tau(  39) = (  0.9855316  0.9991746  0.6396845  )
        40           Cr  tau(  40) = (  0.2285675  0.1903470  0.6483877  )
        41           Cr  tau(  41) = (  0.1137449  0.3431600  0.5495225  )
        42           N   tau(  42) = (  0.3172617  0.1723918  0.6676102  )
        43           N   tau(  43) = (  0.2205146  0.1772040  0.6078433  )
        44           N   tau(  44) = (  0.0191785  0.3382699  0.5317771  )
        45           N   tau(  45) = (  0.1071836  0.1808906  0.5388349  )
        46           N   tau(  46) = (  0.2050743  0.4649863  0.5304993  )
        47           N   tau(  47) = (  0.1224561  0.0432442  0.6600453  )
        48           N   tau(  48) = (  0.2481900  0.3444091  0.6583666  )
        49           N   tau(  49) = (  0.1152110  0.3507397  0.5851638  )
        50           O   tau(  50) = (  0.0056871  0.0131936  0.6011664  )
        51           Li  tau(  51) = (  0.3097348  0.6512226  0.3321863  )
        52           Li  tau(  52) = (  0.2325186  0.8133797  0.3321863  )
        53           Li  tau(  53) = (  0.1244139  0.5353989  0.3321863  )
        54           Li  tau(  54) = (  0.0235132  0.8450973  0.4883360  )
        55           Li  tau(  55) = (  0.1026087  0.7042965  0.4789484  )
        56           Li  tau(  56) = (  0.2107892  0.9709735  0.4870471  )
        57           Li  tau(  57) = (  0.1192194  0.6566756  0.3916786  )
        58           Li  tau(  58) = (  0.2288831  0.5221537  0.3916786  )
        59           Li  tau(  59) = (  0.3185642  0.8211709  0.3916786  )
        60           Li  tau(  60) = (  0.2080733  0.8452825  0.4254332  )
        61           Li  tau(  61) = (  0.1010107  0.9751683  0.4233005  )
        62           Li  tau(  62) = (  1.0246082  0.6848058  0.4233338  )
        63           Li  tau(  63) = ( -0.0000001  0.4999998  0.3648003  )
        64           Li  tau(  64) = (  0.9938992  0.4822764  0.4496828  )
        65           Cr  tau(  65) = (  0.2248673  0.6659062  0.4559788  )
        66           Cr  tau(  66) = (  0.1111110  0.8333330  0.3591908  )
        67           N   tau(  67) = (  0.3218066  0.6640143  0.4681191  )
        68           N   tau(  68) = (  0.2295983  0.6625628  0.4172370  )
        69           N   tau(  69) = (  0.0175418  0.8434271  0.3474270  )
        70           N   tau(  70) = (  0.1043818  0.6828855  0.3474270  )
        71           N   tau(  71) = (  0.2114098  0.9736874  0.3474270  )
        72           N   tau(  72) = (  0.1126231  0.5227641  0.4689540  )
        73           N   tau(  73) = (  0.2321708  0.8098540  0.4691090  )
        74           N   tau(  74) = (  0.1111110  0.8333330  0.3977842  )
        75           O   tau(  75) = (  0.9935153  0.4903116  0.4068573  )
        76           Li  tau(  76) = (  0.3227906  0.6602164  0.5149352  )
        77           Li  tau(  77) = (  0.2312440  0.8202933  0.5122844  )
        78           Li  tau(  78) = (  0.1451503  0.5629632  0.5199623  )
        79           Li  tau(  79) = (  0.0139518  0.8452278  0.6710694  )
        80           Li  tau(  80) = (  0.0981101  0.6804653  0.6737358  )
        81           Li  tau(  81) = (  0.2049340  0.9897142  0.6763268  )
        82           Li  tau(  82) = (  0.1253239  0.6946204  0.5770474  )
        83           Li  tau(  83) = (  0.2235829  0.5380500  0.5749414  )
        84           Li  tau(  84) = (  0.3069742  0.8169721  0.5871857  )
        85           Li  tau(  85) = (  0.1949698  0.8567795  0.6137717  )
        86           Li  tau(  86) = (  0.1040229  0.9875186  0.6182274  )
        87           Li  tau(  87) = (  0.0172545  0.7026799  0.6073007  )
        88           Li  tau(  88) = (  0.0150960  0.5210089  0.5506674  )
        89           Li  tau(  89) = (  1.0055325  0.5214016  0.6380988  )
        90           Cr  tau(  90) = (  0.2204716  0.6838239  0.6445853  )
        91           Cr  tau(  91) = (  0.1168155  0.8408964  0.5457798  )
        92           N   tau(  92) = (  0.3212292  0.6858828  0.6573413  )
        93           N   tau(  93) = (  0.2121410  0.6822468  0.6066164  )
        94           N   tau(  94) = (  0.0186094  0.8525261  0.5324171  )
        95           N   tau(  95) = (  0.1029363  0.6841316  0.5310418  )
        96           N   tau(  96) = (  0.2127434  0.9873557  0.5370854  )
        97           N   tau(  97) = (  0.1269237  0.5368373  0.6555652  )
        98           N   tau(  98) = (  0.2114886  0.8175127  0.6572084  )
        99           N   tau(  99) = (  0.1097547  0.8485429  0.5847630  )
       100           O   tau( 100) = (  1.0092115  0.5288092  0.5942591  )
       101           Li  tau( 101) = (  0.6430655  0.1512218  0.3321863  )
       102           Li  tau( 102) = (  0.5658521  0.3133799  0.3321863  )
       103           Li  tau( 103) = (  0.4577472  0.0353984  0.3321863  )
       104           Li  tau( 104) = (  0.3595030  0.3527794  0.4879750  )
       105           Li  tau( 105) = (  0.4300753  0.2065135  0.4944216  )
       106           Li  tau( 106) = (  0.5417397  0.4725792  0.4875631  )
       107           Li  tau( 107) = (  0.4525527  0.1566758  0.3916786  )
       108           Li  tau( 108) = (  0.5622164  0.0221536  0.3916786  )
       109           Li  tau( 109) = (  0.6518976  0.3211711  0.3916786  )
       110           Li  tau( 110) = (  0.5541260  0.3345600  0.4260267  )
       111           Li  tau( 111) = (  0.4316445  0.4680464  0.4216197  )
       112           Li  tau( 112) = (  0.3400180  0.1796476  0.4183930  )
       113           Li  tau( 113) = (  0.3333333  0.0000000  0.3648003  )
       114           Li  tau( 114) = (  0.3452159  0.0163304  0.4570950  )
       115           Cr  tau( 115) = (  0.5532439  0.1545298  0.4572212  )
       116           Cr  tau( 116) = (  0.4444444  0.3333332  0.3591908  )
       117           N   tau( 117) = (  0.6459914  0.1483754  0.4729336  )
       118           N   tau( 118) = (  0.5638664  0.1711913  0.4183465  )
       119           N   tau( 119) = (  0.3508752  0.3434273  0.3474270  )
       120           N   tau( 120) = (  0.4377148  0.1828847  0.3474270  )
       121           N   tau( 121) = (  0.5447432  0.4736876  0.3474270  )
       122           N   tau( 122) = (  0.4488895  0.0108785  0.4690847  )
       123           N   tau( 123) = (  0.5574912  0.2996670  0.4687259  )
       124           N   tau( 124) = (  0.4444444  0.3333332  0.3977842  )
       125           O   tau( 125) = (  0.3474442  0.0073659  0.4128477  )
       126           Li  tau( 126) = (  0.6624407  1.0090328  0.5550102  )
       127           Li  tau( 127) = (  0.5769280  0.3190272  0.5209544  )
       128           Li  tau( 128) = (  0.6415630  0.1461181  0.5227859  )
       129           Li  tau( 129) = (  0.3538707  0.3846002  0.6792966  )
       130           Li  tau( 130) = (  0.4337877  0.1721064  0.6686976  )
       131           Li  tau( 131) = (  0.5421745  0.4848728  0.6784196  )
       132           Li  tau( 132) = (  0.4450382  0.1714869  0.5829603  )
       133           Li  tau( 133) = (  0.3402084  0.8620462  0.6705578  )
       134           Li  tau( 134) = (  0.6636805  0.3266969  0.5762922  )
       135           Li  tau( 135) = (  0.5637898  0.3632672  0.6095264  )
       136           Li  tau( 136) = (  0.4749191  0.4716955  0.6253827  )
       137           Li  tau( 137) = (  0.3477343  0.2069255  0.6128637  )
       138           Li  tau( 138) = (  0.4447816  0.0289474  0.5254035  )
       139           Li  tau( 139) = (  0.4397684 -0.0053570  0.6103878  )
       140           Cr  tau( 140) = (  0.5614983  0.1720821  0.6415735  )
       141           Cr  tau( 141) = (  0.4514109  0.3365774  0.5487584  )
       142           N   tau( 142) = (  0.6683083  0.2007214  0.6543206  )
       143           N   tau( 143) = (  0.5581997  0.1750743  0.6031927  )
       144           N   tau( 144) = (  0.3593983  0.3672645  0.5378539  )
       145           N   tau( 145) = (  0.4466193  0.1910191  0.5376634  )
       146           N   tau( 146) = (  0.5439541  0.4706559  0.5315955  )
       147           N   tau( 147) = (  0.4650337  0.0343849  0.6571087  )
       148           N   tau( 148) = (  0.5505147  0.3085778  0.6535964  )
       149           N   tau( 149) = (  0.4561650  0.3550265  0.5885300  )
       150           O   tau( 150) = (  0.3288245  0.0195118  0.5996006  )
       151           Li  tau( 151) = (  0.6430682  0.6512226  0.3321863  )
       152           Li  tau( 152) = (  0.5658520  0.8133797  0.3321863  )
       153           Li  tau( 153) = (  0.4577474  0.5353989  0.3321863  )
       154           Li  tau( 154) = (  0.3688910  0.8535171  0.4782441  )
       155           Li  tau( 155) = (  0.4279312  0.6600737  0.4852466  )
       156           Li  tau( 156) = (  0.5199101  0.9387559  0.4953429  )
       157           Li  tau( 157) = (  0.4525527  0.6566756  0.3916786  )
       158           Li  tau( 158) = (  0.5622164  0.5221537  0.3916786  )
       159           Li  tau( 159) = (  0.6518976  0.8211709  0.3916786  )
       160           Li  tau( 160) = (  0.5519850  0.8596988  0.4245008  )
       161           Li  tau( 161) = (  0.4531090  0.9852634  0.4206718  )
       162           Li  tau( 162) = (  0.3645987  0.6765094  0.4250567  )
       163           Li  tau( 163) = (  0.3333333  0.4999998  0.3648003  )
       164           Li  tau( 164) = (  0.3283203  0.4890372  0.4531796  )
       165           Cr  tau( 165) = (  0.5539938  0.6676078  0.4540986  )
       166           Cr  tau( 166) = (  0.4444443  0.8333330  0.3591908  )
       167           N   tau( 167) = (  0.6440677  0.6597862  0.4722869  )
       168           N   tau( 168) = (  0.5621946  0.6679732  0.4174518  )
       169           N   tau( 169) = (  0.3508751  0.8434271  0.3474270  )
       170           N   tau( 170) = (  0.4377151  0.6828855  0.3474270  )
       171           N   tau( 171) = (  0.5447431  0.9736874  0.3474270  )
       172           N   tau( 172) = (  0.4586825  0.5398943  0.4671779  )
       173           N   tau( 173) = (  0.5619282  0.8177364  0.4652402  )
       174           N   tau( 174) = (  0.4444443  0.8333330  0.3977842  )
       175           O   tau( 175) = (  0.3503184  0.5063506  0.4089789  )
       176           Li  tau( 176) = (  0.6510981  0.6394654  0.5158587  )
       177           Li  tau( 177) = (  0.5527796  0.7904676  0.5199047  )
       178           Li  tau( 178) = (  0.4664059  0.5551751  0.5216963  )
       179           Li  tau( 179) = (  0.3192889  0.0250111  0.6428070  )
       180           Li  tau( 180) = (  0.4616887  0.7718393  0.6595027  )
       181           Li  tau( 181) = (  0.5788362  1.0148026  0.6759570  )
       182           Li  tau( 182) = (  0.4359039  0.6267760  0.5786552  )
       183           Li  tau( 183) = (  0.5714093  0.5452581  0.5764628  )
       184           Li  tau( 184) = (  0.6564225  0.8253656  0.5847475  )
       185           Li  tau( 185) = (  0.5606626  0.8561317  0.6127375  )
       186           Li  tau( 186) = (  0.3373677  0.0027022  0.5552316  )
       187           Li  tau( 187) = (  0.3340145  0.6825444  0.6150407  )
       188           Li  tau( 188) = (  0.3222786  0.4956016  0.5485170  )
       189           Li  tau( 189) = (  0.3412986  0.5170723  0.6382627  )
       190           Cr  tau( 190) = (  0.5624983  0.6823369  0.6441291  )
       191           Cr  tau( 191) = (  0.4348146  0.8317296  0.5497860  )
       192           N   tau( 192) = (  0.6493421  0.6515931  0.6626208  )
       193           N   tau( 193) = (  0.5460723  0.6535720  0.6055911  )
       194           N   tau( 194) = (  0.3442104  0.8335597  0.5336484  )
       195           N   tau( 195) = (  0.4299282  0.6870651  0.5341245  )
       196           N   tau( 196) = (  0.5370929  0.9694896  0.5408148  )
       197           N   tau( 197) = (  0.4520959  0.5672602  0.6568895  )
       198           N   tau( 198) = (  0.5916719  0.8464101  0.6535256  )
       199           N   tau( 199) = (  0.4274092  0.8424816  0.5870307  )
       200           O   tau( 200) = (  0.3211462  0.5142218  0.5930012  )
       201           Li  tau( 201) = (  0.9764000  0.1512218  0.3321863  )
       202           Li  tau( 202) = (  0.8991866  0.3133799  0.3321863  )
       203           Li  tau( 203) = (  0.7910799  0.0353984  0.3321863  )
       204           Li  tau( 204) = (  0.6971962  0.3507792  0.4862343  )
       205           Li  tau( 205) = (  0.7518345  0.1689735  0.4910333  )
       206           Li  tau( 206) = (  0.8781020  0.4687043  0.4850340  )
       207           Li  tau( 207) = (  0.7858861  0.1566758  0.3916786  )
       208           Li  tau( 208) = (  0.8955479  0.0221536  0.3916786  )
       209           Li  tau( 209) = (  0.9852327  0.3211711  0.3916786  )
       210           Li  tau( 210) = (  0.8746817  0.3714643  0.4255328  )
       211           Li  tau( 211) = (  0.7513102  0.4563894  0.4278183  )
       212           Li  tau( 212) = (  0.6749093  0.1874054  0.4278116  )
       213           Li  tau( 213) = (  0.6666690  0.0000000  0.3648003  )
       214           Li  tau( 214) = (  0.6536056 -0.0162751  0.4546855  )
       215           Cr  tau( 215) = (  0.8863576  0.1735023  0.4584348  )
       216           Cr  tau( 216) = (  0.7777800  0.3333332  0.3591908  )
       217           N   tau( 217) = (  0.9862310  0.1599737  0.4692574  )
       218           N   tau( 218) = (  0.8969797  0.1752828  0.4191238  )
       219           N   tau( 219) = (  0.6842085  0.3434273  0.3474270  )
       220           N   tau( 220) = (  0.7710469  0.1828847  0.3474270  )
       221           N   tau( 221) = (  0.8780741  0.4736876  0.3474270  )
       222           N   tau( 222) = (  0.7868263  0.0477791  0.4694390  )
       223           N   tau( 223) = (  0.8922300  0.3222279  0.4738416  )
       224           N   tau( 224) = (  0.7777800  0.3333332  0.3977842  )
       225           O   tau( 225) = (  0.6705899  1.0034645  0.4120837  )
       226           Li  tau( 226) = (  0.9736724  0.1452830  0.5191518  )
       227           Li  tau( 227) = (  0.8938490  0.3075534  0.5171675  )
       228           Li  tau( 228) = (  0.7922546  0.0258255  0.5193312  )
       229           Li  tau( 229) = (  0.6872402  0.3717204  0.6747678  )
       230           Li  tau( 230) = (  0.7835347  0.2160701  0.6693155  )
       231           Li  tau( 231) = (  0.9074146  0.4992932  0.6762382  )
       232           Li  tau( 232) = (  0.7775127  0.1388492  0.5785378  )
       233           Li  tau( 233) = (  0.9035438  1.0362722  0.5750676  )
       234           Li  tau( 234) = ( -0.0241278  0.3111357  0.5770253  )
       235           Li  tau( 235) = (  0.8699267  0.3390534  0.6085963  )
       236           Li  tau( 236) = (  0.7921738  0.4760117  0.6166462  )
       237           Li  tau( 237) = (  0.6797836  0.1874763  0.6106381  )
       238           Li  tau( 238) = (  0.5619022  0.0171928  0.5807613  )
       239           Li  tau( 239) = (  0.7786907  0.9955042  0.6135990  )
       240           Cr  tau( 240) = (  0.8887852  0.1836429  0.6438301  )
       241           Cr  tau( 241) = (  0.7917470  0.3382932  0.5475603  )
       242           N   tau( 242) = (  0.9856704  0.1674440  0.6556626  )
       243           N   tau( 243) = (  0.8939864  0.1793469  0.6068113  )
       244           N   tau( 244) = (  0.7073997  0.3663505  0.5320118  )
       245           N   tau( 245) = (  0.7780657  0.1775371  0.5373600  )
       246           N   tau( 246) = (  0.8891677  0.4679583  0.5317970  )
       247           N   tau( 247) = (  0.7934633  0.0474227  0.6602291  )
       248           N   tau( 248) = (  0.9058787  0.3504978  0.6507573  )
       249           N   tau( 249) = (  0.7829748  0.3365572  0.5848516  )
       250           O   tau( 250) = (  0.6691307  0.9993254  0.5941572  )
       251           Li  tau( 251) = (  0.9764026  0.6512226  0.3321863  )
       252           Li  tau( 252) = (  0.8991830  0.8133797  0.3321863  )
       253           Li  tau( 253) = (  0.7910824  0.5353989  0.3321863  )
       254           Li  tau( 254) = (  0.6894086  0.8401747  0.4836809  )
       255           Li  tau( 255) = (  0.7659052  0.6745163  0.4901608  )
       256           Li  tau( 256) = (  0.8603203  0.9476242  0.4770549  )
       257           Li  tau( 257) = (  0.7858860  0.6566756  0.3916786  )
       258           Li  tau( 258) = (  0.8955503  0.5221537  0.3916786  )
       259           Li  tau( 259) = (  0.9852291  0.8211709  0.3916786  )
       260           Li  tau( 260) = (  0.8722436  0.8263080  0.4220249  )
       261           Li  tau( 261) = (  0.7786905  0.9982494  0.4298114  )
       262           Li  tau( 262) = (  0.6976042  0.6716810  0.4269967  )
       263           Li  tau( 263) = (  0.6666666  0.4999998  0.3648003  )
       264           Li  tau( 264) = (  0.6512710  0.4996992  0.4578966  )
       265           Cr  tau( 265) = (  0.8878199  0.6679236  0.4573164  )
       266           Cr  tau( 266) = (  0.7777776  0.8333330  0.3591908  )
       267           N   tau( 267) = (  0.9774302  0.6366150  0.4708541  )
       268           N   tau( 268) = (  0.8844098  0.6445438  0.4207604  )
       269           N   tau( 269) = (  0.6842084  0.8434271  0.3474270  )
       270           N   tau( 270) = (  0.7710484  0.6828855  0.3474270  )
       271           N   tau( 271) = (  0.8780764  0.9736874  0.3474270  )
       272           N   tau( 272) = (  0.7835249  0.5201950  0.4684535  )
       273           N   tau( 273) = (  0.8928268  0.8074955  0.4725815  )
       274           N   tau( 274) = (  0.7777776  0.8333330  0.3977842  )
       275           O   tau( 275) = (  0.6646805  0.4904230  0.4064498  )
       276           Li  tau( 276) = (  0.9753130  0.6332614  0.5212888  )
       277           Li  tau( 277) = (  0.9069696  0.8214159  0.5174953  )
       278           Li  tau( 278) = (  0.7912916  0.5271724  0.5160602  )
       279           Li  tau( 279) = (  0.6849350  0.0333382  0.6435312  )
       280           Li  tau( 280) = (  0.7636296  0.6672758  0.6755539  )
       281           Li  tau( 281) = (  0.9134921  1.0151063  0.6721258  )
       282           Li  tau( 282) = (  0.7898776  0.6699724  0.5796983  )
       283           Li  tau( 283) = (  0.9114793  0.5504094  0.5735661  )
       284           Li  tau( 284) = (  0.9978473  0.8362857  0.5843666  )
       285           Li  tau( 285) = (  0.8744238  0.8454019  0.6114154  )
       286           Li  tau( 286) = (  0.7235223  0.8455224  0.6721789  )
       287           Li  tau( 287) = (  0.6702221  0.6619443  0.6099826  )
       288           Li  tau( 288) = (  0.6737328  0.4975400  0.5543768  )
       289           Li  tau( 289) = (  0.6712087  0.5258079  0.6420961  )
       290           Cr  tau( 290) = (  0.8839659  0.6743149  0.6439232  )
       291           Cr  tau( 291) = (  0.7777229  0.8259052  0.5451553  )
       292           N   tau( 292) = (  0.9761703  0.6596424  0.6572815  )
       293           N   tau( 293) = (  0.8894560  0.6546683  0.6035559  )
       294           N   tau( 294) = (  0.6878340  0.8446681  0.5353071  )
       295           N   tau( 295) = (  0.7728727  0.6714624  0.5345874  )
       296           N   tau( 296) = (  0.8780408  0.9477780  0.5328932  )
       297           N   tau( 297) = (  0.7841702  0.5466591  0.6583954  )
       298           N   tau( 298) = (  0.8889801  0.8385420  0.6533794  )
       299           N   tau( 299) = (  0.7787657  0.8264123  0.5841274  )
       300           O   tau( 300) = (  0.6664547  0.5017469  0.5966863  )

     number of k points=     1  Gaussian smearing, width (Ry)=  0.0147
                       cart. coord. in units 2pi/alat
        k(    1) = (   0.0000000   0.0000000   0.0000000), wk =   2.0000000

                       cryst. coord.
        k(    1) = (   0.0000000   0.0000000   0.0000000), wk =   2.0000000

     Dense  grid:  5457965 G-vectors     FFT dimensions: ( 240, 160, 640)

     Smooth grid:  2970742 G-vectors     FFT dimensions: ( 200, 135, 540)

     Dynamical RAM for                 wfc:    1182.84 MB

     Dynamical RAM for     wfc (w. buffer):    1182.84 MB

     Dynamical RAM for           str. fact:      83.28 MB

     Dynamical RAM for           local pot:       0.00 MB

     Dynamical RAM for          nlocal pot:    3977.76 MB

     Dynamical RAM for                qrad:       7.46 MB

     Dynamical RAM for          rho,v,vnew:     203.09 MB

     Dynamical RAM for               rhoin:      67.70 MB

     Dynamical RAM for            rho*nmix:     333.13 MB

     Dynamical RAM for           G-vectors:      83.74 MB

     Dynamical RAM for          h,s,v(r/c):      63.83 MB

     Dynamical RAM for          <psi|beta>:      17.89 MB

     Dynamical RAM for                 psi:    2365.69 MB

     Dynamical RAM for                hpsi:    2365.69 MB

     Dynamical RAM for                spsi:    2365.69 MB

     Dynamical RAM for      wfcinit/wfcrot:    4336.08 MB

     Dynamical RAM for           addusdens:    7370.47 MB

     Dynamical RAM for          addusforce:   14335.60 MB

     Dynamical RAM for         addusstress:    4184.93 MB

     Estimated static dynamical RAM per process >       5.81 GB

     Estimated max dynamical RAM per process >      20.13 GB

     Estimated total dynamical RAM >      80.52 GB

     Check: negative core charge=   -0.000002

     Initial potential from superposition of free atoms

     starting charge    1292.2742, renormalised to    1392.0000

     negative rho (up, down):  2.553E-02 0.000E+00
     Starting wfcs are 1512 randomized atomic wfcs
     Checking if some PAW data can be deallocated... 

     total cpu time spent up to now is       34.8 secs

     per-process dynamical memory:  1708.5 Mb

     Self-consistent Calculation
[tb_dev] Currently allocated     1.26E+02 Mbytes, locked:    0 /  11
[tb_pin] Currently allocated     0.00E+00 Mbytes, locked:    0 /   0

     iteration #  1     ecut=    90.00 Ry     beta= 0.20
     Davidson diagonalization with overlap

---- Real-time Memory Report at c_bands before calling an iterative solver
         10172 MiB given to the printing process from OS
          1746 MiB allocation reported by mallinfo(arena+hblkhd)
        465811 MiB available memory on the node where the printing process lives
     GPU memory used/free/total (MiB): 16367 / 48601 / 64969
------------------
     ethr =  1.00E-02,  avg # of iterations =  3.0

     negative rho (up, down):  4.006E-02 0.000E+00

     total cpu time spent up to now is       38.6 secs

     total energy              =   -9071.78130621 Ry
     estimated scf accuracy    <     237.15089253 Ry
[tb_dev] Currently allocated     2.41E+01 Mbytes, locked:    0 /   6
[tb_pin] Currently allocated     0.00E+00 Mbytes, locked:    0 /   0

     iteration #  2     ecut=    90.00 Ry     beta= 0.20
     Davidson diagonalization with overlap

---- Real-time Memory Report at c_bands before calling an iterative solver
         10502 MiB given to the printing process from OS
          2013 MiB allocation reported by mallinfo(arena+hblkhd)
        464857 MiB available memory on the node where the printing process lives
     GPU memory used/free/total (MiB): 31259 / 33709 / 64969
------------------
     ethr =  1.00E-02,  avg # of iterations =  5.0

     negative rho (up, down):  4.626E-02 0.000E+00

     total cpu time spent up to now is       42.5 secs

     total energy              =   -9090.22110786 Ry
     estimated scf accuracy    <      15.44516301 Ry
[tb_dev] Currently allocated     2.41E+01 Mbytes, locked:    0 /   6
[tb_pin] Currently allocated     0.00E+00 Mbytes, locked:    0 /   0

     iteration #  3     ecut=    90.00 Ry     beta= 0.20
     Davidson diagonalization with overlap

---- Real-time Memory Report at c_bands before calling an iterative solver
         10526 MiB given to the printing process from OS
          2037 MiB allocation reported by mallinfo(arena+hblkhd)
        464740 MiB available memory on the node where the printing process lives
     GPU memory used/free/total (MiB): 31443 / 33525 / 64969
------------------
     ethr =  1.11E-03,  avg # of iterations =  7.0

     negative rho (up, down):  3.876E-02 0.000E+00

     total cpu time spent up to now is       47.7 secs

     total energy              =   -9092.25922044 Ry
     estimated scf accuracy    <      71.34404218 Ry
[tb_dev] Currently allocated     2.41E+01 Mbytes, locked:    0 /   6
[tb_pin] Currently allocated     0.00E+00 Mbytes, locked:    0 /   0

     iteration #  4     ecut=    90.00 Ry     beta= 0.20
     Davidson diagonalization with overlap

---- Real-time Memory Report at c_bands before calling an iterative solver
         10529 MiB given to the printing process from OS
         -2035 MiB allocation reported by mallinfo(arena+hblkhd)
        464570 MiB available memory on the node where the printing process lives
     GPU memory used/free/total (MiB): 32303 / 32665 / 64969
------------------
     ethr =  1.11E-03,  avg # of iterations =  2.0

     negative rho (up, down):  3.552E-02 0.000E+00

     total cpu time spent up to now is       51.1 secs

     total energy              =   -9096.51297948 Ry
     estimated scf accuracy    <       4.29331266 Ry
[tb_dev] Currently allocated     2.41E+01 Mbytes, locked:    0 /   6
[tb_pin] Currently allocated     0.00E+00 Mbytes, locked:    0 /   0

     iteration #  5     ecut=    90.00 Ry     beta= 0.20
     Davidson diagonalization with overlap

---- Real-time Memory Report at c_bands before calling an iterative solver
         10553 MiB given to the printing process from OS
         -2011 MiB allocation reported by mallinfo(arena+hblkhd)
        464476 MiB available memory on the node where the printing process lives
     GPU memory used/free/total (MiB): 32303 / 32665 / 64969
------------------
     ethr =  3.08E-04,  avg # of iterations = 16.0

     negative rho (up, down):  3.795E-02 0.000E+00

     total cpu time spent up to now is       55.8 secs

     total energy              =   -9095.74700412 Ry
     estimated scf accuracy    <      15.71896824 Ry
[tb_dev] Currently allocated     2.41E+01 Mbytes, locked:    0 /   6
[tb_pin] Currently allocated     0.00E+00 Mbytes, locked:    0 /   0

     iteration #  6     ecut=    90.00 Ry     beta= 0.20
     Davidson diagonalization with overlap

---- Real-time Memory Report at c_bands before calling an iterative solver
         10576 MiB given to the printing process from OS
         -1988 MiB allocation reported by mallinfo(arena+hblkhd)
        464334 MiB available memory on the node where the printing process lives
     GPU memory used/free/total (MiB): 32327 / 32641 / 64969
------------------
     ethr =  3.08E-04,  avg # of iterations =  2.0

     negative rho (up, down):  3.816E-02 0.000E+00

     total cpu time spent up to now is       59.4 secs

     total energy              =   -9096.03888946 Ry
     estimated scf accuracy    <       4.08624489 Ry
[tb_dev] Currently allocated     2.41E+01 Mbytes, locked:    0 /   6
[tb_pin] Currently allocated     0.00E+00 Mbytes, locked:    0 /   0

     iteration #  7     ecut=    90.00 Ry     beta= 0.20
     Davidson diagonalization with overlap

---- Real-time Memory Report at c_bands before calling an iterative solver
         10600 MiB given to the printing process from OS
         -1964 MiB allocation reported by mallinfo(arena+hblkhd)
        464383 MiB available memory on the node where the printing process lives
     GPU memory used/free/total (MiB): 32327 / 32641 / 64969
------------------
     ethr =  2.94E-04,  avg # of iterations =  2.0

     negative rho (up, down):  3.969E-02 0.000E+00

     total cpu time spent up to now is       62.9 secs

     total energy              =   -9095.61476090 Ry
     estimated scf accuracy    <       2.28148806 Ry
[tb_dev] Currently allocated     2.41E+01 Mbytes, locked:    0 /   6
[tb_pin] Currently allocated     0.00E+00 Mbytes, locked:    0 /   0

     iteration #  8     ecut=    90.00 Ry     beta= 0.20
     Davidson diagonalization with overlap

---- Real-time Memory Report at c_bands before calling an iterative solver
         10623 MiB given to the printing process from OS
         -1941 MiB allocation reported by mallinfo(arena+hblkhd)
        464099 MiB available memory on the node where the printing process lives
     GPU memory used/free/total (MiB): 32329 / 32639 / 64969
------------------
     ethr =  1.64E-04,  avg # of iterations = 12.0

     negative rho (up, down):  3.953E-02 0.000E+00

     total cpu time spent up to now is       67.3 secs

     total energy              =   -9096.10335720 Ry
     estimated scf accuracy    <       1.04779527 Ry
[tb_dev] Currently allocated     2.41E+01 Mbytes, locked:    0 /   6
[tb_pin] Currently allocated     0.00E+00 Mbytes, locked:    0 /   0

     iteration #  9     ecut=    90.00 Ry     beta= 0.20
     Davidson diagonalization with overlap

---- Real-time Memory Report at c_bands before calling an iterative solver
         10647 MiB given to the printing process from OS
         -1917 MiB allocation reported by mallinfo(arena+hblkhd)
        464005 MiB available memory on the node where the printing process lives
     GPU memory used/free/total (MiB): 32329 / 32639 / 64969
------------------
     ethr =  7.53E-05,  avg # of iterations =  2.0

     negative rho (up, down):  3.874E-02 0.000E+00

     total cpu time spent up to now is       70.8 secs

     total energy              =   -9095.98696646 Ry
     estimated scf accuracy    <       0.64551276 Ry
[tb_dev] Currently allocated     2.41E+01 Mbytes, locked:    0 /   6
[tb_pin] Currently allocated     0.00E+00 Mbytes, locked:    0 /   0

     iteration # 10     ecut=    90.00 Ry     beta= 0.20
     Davidson diagonalization with overlap

---- Real-time Memory Report at c_bands before calling an iterative solver
         10670 MiB given to the printing process from OS
         -1894 MiB allocation reported by mallinfo(arena+hblkhd)
        464101 MiB available memory on the node where the printing process lives
     GPU memory used/free/total (MiB): 32329 / 32639 / 64969
------------------
     c_bands:  1 eigenvalues not converged
     ethr =  4.64E-05,  avg # of iterations = 20.0

     negative rho (up, down):  3.900E-02 0.000E+00

     total cpu time spent up to now is       75.2 secs

     total energy              =   -9096.05118743 Ry
     estimated scf accuracy    <       0.02756730 Ry
[tb_dev] Currently allocated     2.41E+01 Mbytes, locked:    0 /   6
[tb_pin] Currently allocated     0.00E+00 Mbytes, locked:    0 /   0

     iteration # 11     ecut=    90.00 Ry     beta= 0.20
     Davidson diagonalization with overlap

---- Real-time Memory Report at c_bands before calling an iterative solver
         10670 MiB given to the printing process from OS
         -1894 MiB allocation reported by mallinfo(arena+hblkhd)
        463910 MiB available memory on the node where the printing process lives
     GPU memory used/free/total (MiB): 32329 / 32639 / 64969
------------------
     ethr =  1.98E-06,  avg # of iterations = 27.0

     negative rho (up, down):  3.913E-02 0.000E+00

     total cpu time spent up to now is       82.9 secs

     total energy              =   -9096.05853732 Ry
     estimated scf accuracy    <       0.04340672 Ry
[tb_dev] Currently allocated     2.41E+01 Mbytes, locked:    0 /   6
[tb_pin] Currently allocated     0.00E+00 Mbytes, locked:    0 /   0

     iteration # 12     ecut=    90.00 Ry     beta= 0.20
     Davidson diagonalization with overlap

---- Real-time Memory Report at c_bands before calling an iterative solver
         10670 MiB given to the printing process from OS
         -1894 MiB allocation reported by mallinfo(arena+hblkhd)
        463910 MiB available memory on the node where the printing process lives
     GPU memory used/free/total (MiB): 32329 / 32639 / 64969
------------------
     ethr =  1.98E-06,  avg # of iterations =  2.0

     negative rho (up, down):  3.924E-02 0.000E+00

     total cpu time spent up to now is       86.4 secs

     total energy              =   -9096.05729215 Ry
     estimated scf accuracy    <       0.01376897 Ry
[tb_dev] Currently allocated     2.41E+01 Mbytes, locked:    0 /   6
[tb_pin] Currently allocated     0.00E+00 Mbytes, locked:    0 /   0

     iteration # 13     ecut=    90.00 Ry     beta= 0.20
     Davidson diagonalization with overlap

---- Real-time Memory Report at c_bands before calling an iterative solver
         10670 MiB given to the printing process from OS
         -1894 MiB allocation reported by mallinfo(arena+hblkhd)
        463910 MiB available memory on the node where the printing process lives
     GPU memory used/free/total (MiB): 32329 / 32639 / 64969
------------------
     ethr =  9.89E-07,  avg # of iterations =  3.0

     negative rho (up, down):  3.935E-02 0.000E+00

     total cpu time spent up to now is       90.1 secs

     total energy              =   -9096.05904534 Ry
     estimated scf accuracy    <       0.00237011 Ry
[tb_dev] Currently allocated     2.41E+01 Mbytes, locked:    0 /   6
[tb_pin] Currently allocated     0.00E+00 Mbytes, locked:    0 /   0

     iteration # 14     ecut=    90.00 Ry     beta= 0.20
     Davidson diagonalization with overlap

---- Real-time Memory Report at c_bands before calling an iterative solver
         10670 MiB given to the printing process from OS
         -1894 MiB allocation reported by mallinfo(arena+hblkhd)
        463911 MiB available memory on the node where the printing process lives
     GPU memory used/free/total (MiB): 32329 / 32639 / 64969
------------------
     ethr =  1.70E-07,  avg # of iterations =  5.0

     negative rho (up, down):  3.944E-02 0.000E+00

     total cpu time spent up to now is       94.0 secs

     total energy              =   -9096.05933152 Ry
     estimated scf accuracy    <       0.00197065 Ry
[tb_dev] Currently allocated     2.41E+01 Mbytes, locked:    0 /   6
[tb_pin] Currently allocated     0.00E+00 Mbytes, locked:    0 /   0

     iteration # 15     ecut=    90.00 Ry     beta= 0.20
     Davidson diagonalization with overlap

---- Real-time Memory Report at c_bands before calling an iterative solver
         10670 MiB given to the printing process from OS
         -1894 MiB allocation reported by mallinfo(arena+hblkhd)
        464006 MiB available memory on the node where the printing process lives
     GPU memory used/free/total (MiB): 32329 / 32639 / 64969
------------------
     ethr =  1.42E-07,  avg # of iterations =  2.0

     negative rho (up, down):  3.952E-02 0.000E+00

     total cpu time spent up to now is       97.6 secs

     total energy              =   -9096.05946688 Ry
     estimated scf accuracy    <       0.00040862 Ry
[tb_dev] Currently allocated     2.41E+01 Mbytes, locked:    0 /   6
[tb_pin] Currently allocated     0.00E+00 Mbytes, locked:    0 /   0

     iteration # 16     ecut=    90.00 Ry     beta= 0.20
     Davidson diagonalization with overlap

---- Real-time Memory Report at c_bands before calling an iterative solver
         10670 MiB given to the printing process from OS
         -1894 MiB allocation reported by mallinfo(arena+hblkhd)
        463911 MiB available memory on the node where the printing process lives
     GPU memory used/free/total (MiB): 32329 / 32639 / 64969
------------------
     ethr =  2.94E-08,  avg # of iterations =  5.0

     negative rho (up, down):  3.957E-02 0.000E+00

     total cpu time spent up to now is      101.4 secs

     total energy              =   -9096.05952562 Ry
     estimated scf accuracy    <       0.00019460 Ry
[tb_dev] Currently allocated     2.41E+01 Mbytes, locked:    0 /   6
[tb_pin] Currently allocated     0.00E+00 Mbytes, locked:    0 /   0

     iteration # 17     ecut=    90.00 Ry     beta= 0.20
     Davidson diagonalization with overlap

---- Real-time Memory Report at c_bands before calling an iterative solver
         10670 MiB given to the printing process from OS
         -1894 MiB allocation reported by mallinfo(arena+hblkhd)
        464006 MiB available memory on the node where the printing process lives
     GPU memory used/free/total (MiB): 32329 / 32639 / 64969
------------------
     ethr =  1.40E-08,  avg # of iterations =  2.0

     negative rho (up, down):  3.964E-02 0.000E+00

     total cpu time spent up to now is      104.9 secs

     total energy              =   -9096.05954023 Ry
     estimated scf accuracy    <       0.00008152 Ry
[tb_dev] Currently allocated     2.41E+01 Mbytes, locked:    0 /   6
[tb_pin] Currently allocated     0.00E+00 Mbytes, locked:    0 /   0

     iteration # 18     ecut=    90.00 Ry     beta= 0.20
     Davidson diagonalization with overlap

---- Real-time Memory Report at c_bands before calling an iterative solver
         10670 MiB given to the printing process from OS
         -1894 MiB allocation reported by mallinfo(arena+hblkhd)
        463911 MiB available memory on the node where the printing process lives
     GPU memory used/free/total (MiB): 32329 / 32639 / 64969
------------------
     ethr =  5.86E-09,  avg # of iterations =  5.0

     negative rho (up, down):  3.969E-02 0.000E+00

     total cpu time spent up to now is      108.8 secs

     total energy              =   -9096.05955486 Ry
     estimated scf accuracy    <       0.00005266 Ry
[tb_dev] Currently allocated     2.41E+01 Mbytes, locked:    0 /   6
[tb_pin] Currently allocated     0.00E+00 Mbytes, locked:    0 /   0

     iteration # 19     ecut=    90.00 Ry     beta= 0.20
     Davidson diagonalization with overlap

---- Real-time Memory Report at c_bands before calling an iterative solver
         10670 MiB given to the printing process from OS
         -1894 MiB allocation reported by mallinfo(arena+hblkhd)
        463911 MiB available memory on the node where the printing process lives
     GPU memory used/free/total (MiB): 32329 / 32639 / 64969
------------------
     ethr =  3.78E-09,  avg # of iterations =  1.0

     negative rho (up, down):  3.972E-02 0.000E+00

     total cpu time spent up to now is      112.2 secs

     total energy              =   -9096.05955774 Ry
     estimated scf accuracy    <       0.00001826 Ry
[tb_dev] Currently allocated     2.41E+01 Mbytes, locked:    0 /   6
[tb_pin] Currently allocated     0.00E+00 Mbytes, locked:    0 /   0

     iteration # 20     ecut=    90.00 Ry     beta= 0.20
     Davidson diagonalization with overlap

---- Real-time Memory Report at c_bands before calling an iterative solver
         10670 MiB given to the printing process from OS
         -1894 MiB allocation reported by mallinfo(arena+hblkhd)
        463911 MiB available memory on the node where the printing process lives
     GPU memory used/free/total (MiB): 32329 / 32639 / 64969
------------------
     ethr =  1.31E-09,  avg # of iterations =  5.0

     negative rho (up, down):  3.974E-02 0.000E+00

     total cpu time spent up to now is      116.2 secs

     total energy              =   -9096.05956127 Ry
     estimated scf accuracy    <       0.00000679 Ry
[tb_dev] Currently allocated     2.41E+01 Mbytes, locked:    0 /   6
[tb_pin] Currently allocated     0.00E+00 Mbytes, locked:    0 /   0

     iteration # 21     ecut=    90.00 Ry     beta= 0.20
     Davidson diagonalization with overlap

---- Real-time Memory Report at c_bands before calling an iterative solver
         10670 MiB given to the printing process from OS
         -1894 MiB allocation reported by mallinfo(arena+hblkhd)
        463911 MiB available memory on the node where the printing process lives
     GPU memory used/free/total (MiB): 32329 / 32639 / 64969
------------------
     ethr =  4.88E-10,  avg # of iterations =  2.0

     negative rho (up, down):  3.976E-02 0.000E+00

     total cpu time spent up to now is      119.8 secs

     total energy              =   -9096.05956185 Ry
     estimated scf accuracy    <       0.00000271 Ry
[tb_dev] Currently allocated     2.41E+01 Mbytes, locked:    0 /   6
[tb_pin] Currently allocated     0.00E+00 Mbytes, locked:    0 /   0

     iteration # 22     ecut=    90.00 Ry     beta= 0.20
     Davidson diagonalization with overlap

---- Real-time Memory Report at c_bands before calling an iterative solver
         10670 MiB given to the printing process from OS
         -1894 MiB allocation reported by mallinfo(arena+hblkhd)
        463911 MiB available memory on the node where the printing process lives
     GPU memory used/free/total (MiB): 32329 / 32639 / 64969
------------------
     ethr =  1.95E-10,  avg # of iterations =  5.0

     negative rho (up, down):  3.978E-02 0.000E+00

     total cpu time spent up to now is      123.7 secs

     total energy              =   -9096.05956239 Ry
     estimated scf accuracy    <       0.00000069 Ry
[tb_dev] Currently allocated     2.41E+01 Mbytes, locked:    0 /   6
[tb_pin] Currently allocated     0.00E+00 Mbytes, locked:    0 /   0

     iteration # 23     ecut=    90.00 Ry     beta= 0.20
     Davidson diagonalization with overlap

---- Real-time Memory Report at c_bands before calling an iterative solver
         10671 MiB given to the printing process from OS
         -1894 MiB allocation reported by mallinfo(arena+hblkhd)
        463911 MiB available memory on the node where the printing process lives
     GPU memory used/free/total (MiB): 32329 / 32639 / 64969
------------------
     ethr =  4.93E-11,  avg # of iterations =  5.0

     negative rho (up, down):  3.979E-02 0.000E+00

     total cpu time spent up to now is      128.0 secs

     total energy              =   -9096.05956265 Ry
     estimated scf accuracy    <       0.00000054 Ry
[tb_dev] Currently allocated     2.41E+01 Mbytes, locked:    0 /   6
[tb_pin] Currently allocated     0.00E+00 Mbytes, locked:    0 /   0

     iteration # 24     ecut=    90.00 Ry     beta= 0.20
     Davidson diagonalization with overlap

---- Real-time Memory Report at c_bands before calling an iterative solver
         10671 MiB given to the printing process from OS
         -1894 MiB allocation reported by mallinfo(arena+hblkhd)
        463910 MiB available memory on the node where the printing process lives
     GPU memory used/free/total (MiB): 32329 / 32639 / 64969
------------------
     ethr =  3.85E-11,  avg # of iterations =  2.0

     negative rho (up, down):  3.979E-02 0.000E+00

     total cpu time spent up to now is      131.6 secs

     total energy              =   -9096.05956274 Ry
     estimated scf accuracy    <       0.00000017 Ry
[tb_dev] Currently allocated     2.41E+01 Mbytes, locked:    0 /   6
[tb_pin] Currently allocated     0.00E+00 Mbytes, locked:    0 /   0

     iteration # 25     ecut=    90.00 Ry     beta= 0.20
     Davidson diagonalization with overlap

---- Real-time Memory Report at c_bands before calling an iterative solver
         10671 MiB given to the printing process from OS
         -1894 MiB allocation reported by mallinfo(arena+hblkhd)
        463911 MiB available memory on the node where the printing process lives
     GPU memory used/free/total (MiB): 32329 / 32639 / 64969
------------------
     ethr =  1.21E-11,  avg # of iterations =  5.0

     negative rho (up, down):  3.982E-02 0.000E+00

     total cpu time spent up to now is      135.2 secs

     End of self-consistent calculation

          k = 0.0000 0.0000 0.0000 (371318 PWs)   bands (ev):

   -72.1086 -72.0687 -72.0285 -71.9929 -71.9844 -71.9624 -71.9457 -71.9178
   -71.8096 -71.7656 -71.7420 -71.7390 -71.7261 -71.7130 -71.6394 -71.5879
   -71.5831 -71.5716 -71.5442 -71.4219 -71.4137 -71.3704 -71.3378 -71.3264
   -45.7425 -45.5965 -45.1705 -45.1257 -45.1056 -45.0542 -45.0244 -44.9016
   -44.8861 -44.7715 -44.7536 -44.7466 -44.7352 -44.7347 -44.7180 -44.6951
   -44.6910 -44.6799 -44.6757 -44.6664 -44.6660 -44.6653 -44.6644 -44.6550
   -44.6475 -44.6276 -44.6123 -44.6040 -44.5982 -44.5980 -44.5950 -44.5923
   -44.5879 -44.5756 -44.5645 -44.5559 -44.5545 -44.5504 -44.5331 -44.5217
   -44.5209 -44.5082 -44.5015 -44.4905 -44.4637 -44.4405 -44.4109 -44.3616
   -44.3385 -44.3325 -44.3207 -44.3153 -44.3123 -44.3085 -44.3075 -44.3045
   -44.2937 -44.2923 -44.2844 -44.2518 -44.2515 -44.2514 -44.2512 -44.2321
   -44.2284 -44.2267 -44.2266 -44.2118 -44.2098 -44.1874 -44.1740 -44.1646
   -44.1629 -44.1618 -44.1516 -44.1509 -44.1414 -44.1317 -44.1299 -44.1249
   -44.1141 -44.1057 -44.0865 -44.0529 -44.0507 -44.0475 -44.0456 -44.0412
   -44.0251 -44.0242 -44.0204 -44.0178 -44.0131 -44.0011 -43.9957 -43.9674
   -43.9616 -43.9584 -43.9498 -43.9419 -43.9337 -43.9285 -43.9225 -43.9192
   -43.9174 -43.9044 -43.9026 -43.8634 -43.8507 -43.8504 -43.8453 -43.8179
   -43.8126 -43.8060 -43.8021 -43.7847 -43.7819 -43.7602 -43.7516 -43.7448
   -43.7437 -43.7368 -43.7361 -43.7260 -43.7092 -43.7069 -43.6915 -43.6898
   -43.6770 -43.6749 -43.6410 -43.6386 -43.6244 -43.6234 -43.6145 -43.5976
   -43.5963 -43.5881 -43.5847 -43.5790 -43.5748 -43.5739 -43.5654 -43.5615
   -43.5602 -43.5558 -43.5530 -43.5525 -43.5456 -43.5374 -43.5335 -43.5267
   -43.5223 -43.4998 -43.4905 -43.4714 -43.4488 -43.4483 -43.4463 -43.4351
   -43.4241 -43.4073 -43.3918 -43.3910 -43.3854 -43.3844 -43.3795 -43.3758
   -43.3633 -43.3620 -43.3608 -43.3605 -43.3598 -43.3553 -43.3498 -43.3485
   -43.3481 -43.3460 -43.3099 -43.2995 -43.2894 -43.2708 -43.2662 -43.2404
   -43.2377 -43.2240 -43.2156 -43.2006 -43.1946 -43.1824 -43.1779 -43.1687
   -43.1619 -43.1611 -43.1516 -43.1513 -43.1501 -43.1442 -43.1367 -43.1346
   -43.1236 -43.1154 -43.1046 -43.1015 -43.1012 -43.0847 -43.0729 -43.0627
   -43.0566 -43.0480 -43.0477 -43.0431 -43.0395 -43.0379 -43.0175 -43.0158
   -43.0120 -42.9810 -42.9724 -42.9513 -42.9471 -42.9429 -42.9192 -42.9009
   -42.9008 -42.8702 -42.8667 -42.8570 -42.8453 -42.8366 -42.7768 -42.7715
   -42.7662 -42.7513 -42.7307 -42.7189 -42.7100 -42.7036 -42.6908 -42.6330
   -16.4902 -16.3327 -16.1898 -16.0288 -15.9096 -15.8759 -15.8330 -15.8310
   -15.7862 -15.5415 -15.4698 -15.4046 -13.2356 -13.2162 -13.1512 -13.1122
   -13.1119 -13.0903 -13.0626 -12.9955 -12.9738 -12.9529 -12.9507 -12.8993
   -12.8861 -12.8678 -12.8427 -12.8201 -12.7761 -12.7357 -12.7094 -12.7031
   -12.6965 -12.6766 -12.6666 -12.6035 -12.5816 -12.5476 -12.5329 -12.4873
   -12.4675 -12.4537 -12.4312 -12.4044 -12.3550 -12.3453 -12.3392 -12.3322
   -12.3215 -12.3078 -12.2883 -12.2654 -12.2641 -12.2376 -12.2324 -12.2267
   -12.2147 -12.2078 -12.2034 -12.1888 -12.1798 -12.1752 -12.1669 -12.1627
   -12.1613 -12.1500 -12.1430 -12.1359 -12.1320 -12.1209 -12.1202 -12.1111
   -12.1045 -12.0995 -12.0898 -12.0719 -12.0691 -12.0511 -12.0431 -12.0381
   -12.0341 -12.0159 -11.9889 -11.9863 -11.9750 -11.9687 -11.9605 -11.9525
   -11.9495 -11.9402 -11.9261 -11.9235 -11.8893 -11.8736 -11.8586 -11.8268
   -11.8185 -11.7718 -11.7594 -11.7243 -11.7121 -11.6998 -11.6644 -11.6163
[...]
     atom  143 type  1   force =     0.00000585    0.00000390    0.00004654
     atom  144 type  1   force =    -0.00001448    0.00001679   -0.00001296
     atom  145 type  1   force =     0.00002562   -0.00001514   -0.00001948
     atom  146 type  1   force =     0.00001538    0.00001467   -0.00002013
     atom  147 type  1   force =     0.00003201    0.00004703   -0.00002132
     atom  148 type  1   force =     0.00004420   -0.00004464   -0.00001720
     atom  149 type  1   force =     0.00000531    0.00000796    0.00001593
     atom  150 type  4   force =     0.00000430    0.00000180    0.00000946
     atom  151 type  2   force =    -0.00000203    0.00000424   -0.00000645
     atom  152 type  2   force =     0.00000202   -0.00000497   -0.00000702
     atom  153 type  2   force =     0.00000106    0.00000200   -0.00000691
     atom  154 type  2   force =     0.00000746    0.00000450   -0.00000263
     atom  155 type  2   force =    -0.00000084   -0.00000326    0.00000369
     atom  156 type  2   force =     0.00000101   -0.00000540    0.00000467
     atom  157 type  2   force =    -0.00000010   -0.00000091   -0.00000005
     atom  158 type  2   force =     0.00000166    0.00000213   -0.00000021
     atom  159 type  2   force =    -0.00000169    0.00000321   -0.00000170
     atom  160 type  2   force =     0.00000411    0.00000721   -0.00000064
     atom  161 type  2   force =    -0.00001062   -0.00001745   -0.00001080
     atom  162 type  2   force =    -0.00000439    0.00000075    0.00000201
     atom  163 type  2   force =    -0.00000068   -0.00000129    0.00000135
     atom  164 type  2   force =     0.00000137    0.00000587    0.00000392
     atom  165 type  3   force =    -0.00001901   -0.00002277    0.00004135
     atom  166 type  3   force =     0.00000003   -0.00002115   -0.00002637
     atom  167 type  1   force =     0.00005185    0.00000386    0.00002914
     atom  168 type  1   force =     0.00000721    0.00000532   -0.00006330
     atom  169 type  1   force =     0.00002659   -0.00000357    0.00000334
     atom  170 type  1   force =    -0.00001115    0.00001743    0.00000493
     atom  171 type  1   force =    -0.00000745   -0.00002011    0.00000462
     atom  172 type  1   force =    -0.00003720   -0.00005350    0.00002872
     atom  173 type  1   force =    -0.00002132    0.00006359    0.00002942
     atom  174 type  1   force =    -0.00000557   -0.00000403   -0.00001336
     atom  175 type  4   force =    -0.00000611    0.00000324   -0.00000120
     atom  176 type  2   force =     0.00000258    0.00000690   -0.00000725
     atom  177 type  2   force =     0.00000063    0.00000484   -0.00000106
     atom  178 type  2   force =     0.00000354    0.00000587   -0.00000820
     atom  179 type  2   force =     0.00000451   -0.00000199   -0.00000192
     atom  180 type  2   force =     0.00000352    0.00001340    0.00000326
     atom  181 type  2   force =     0.00000074    0.00000130    0.00000289
     atom  182 type  2   force =     0.00000077    0.00000280   -0.00000353
     atom  183 type  2   force =     0.00000404    0.00000801   -0.00000036
     atom  184 type  2   force =     0.00000015   -0.00000029   -0.00000480
     atom  185 type  2   force =    -0.00000744    0.00000554   -0.00000384
     atom  186 type  2   force =     0.00001374   -0.00000051    0.00000106
     atom  187 type  2   force =    -0.00000136   -0.00000170   -0.00000001
     atom  188 type  2   force =    -0.00000433    0.00000361   -0.00000332
     atom  189 type  2   force =    -0.00000070   -0.00000208   -0.00000584
     atom  190 type  3   force =    -0.00003487    0.00002192    0.00001223
     atom  191 type  3   force =     0.00001595    0.00001610   -0.00004506
     atom  192 type  1   force =     0.00000456    0.00000264    0.00000341
     atom  193 type  1   force =    -0.00000824    0.00000101   -0.00002241
     atom  194 type  1   force =     0.00005189   -0.00000392   -0.00000429
     atom  195 type  1   force =    -0.00001853    0.00003932    0.00000979
     atom  196 type  1   force =    -0.00001384   -0.00003437   -0.00001309
     atom  197 type  1   force =    -0.00000742    0.00000195    0.00001093
     atom  198 type  1   force =    -0.00000279    0.00001315    0.00000872
     atom  199 type  1   force =     0.00001457   -0.00000685   -0.00003754
     atom  200 type  4   force =    -0.00000553    0.00000874   -0.00000276
     atom  201 type  2   force =    -0.00000424    0.00000227   -0.00000577
     atom  202 type  2   force =    -0.00000161   -0.00000355   -0.00000470
     atom  203 type  2   force =     0.00000430    0.00000150   -0.00000339
     atom  204 type  2   force =     0.00000868   -0.00000586    0.00000234
     atom  205 type  2   force =    -0.00000926   -0.00000650   -0.00001451
     atom  206 type  2   force =    -0.00000190   -0.00001100   -0.00000533
     atom  207 type  2   force =     0.00000967   -0.00000082    0.00000773
     atom  208 type  2   force =    -0.00000758    0.00000955    0.00000211
     atom  209 type  2   force =    -0.00000733   -0.00000663    0.00000670
     atom  210 type  2   force =     0.00000299   -0.00000639    0.00000589
     atom  211 type  2   force =     0.00000244   -0.00000179    0.00000103
     atom  212 type  2   force =     0.00002781    0.00000387    0.00000109
     atom  213 type  2   force =     0.00000542    0.00000214    0.00000554
     atom  214 type  2   force =     0.00001197    0.00000971    0.00001134
     atom  215 type  3   force =    -0.00005648   -0.00004428   -0.00004451
     atom  216 type  3   force =     0.00001688    0.00001174   -0.00002820
     atom  217 type  1   force =    -0.00002423    0.00000148   -0.00000742
     atom  218 type  1   force =    -0.00001663    0.00000478    0.00000709
     atom  219 type  1   force =     0.00002001    0.00000388    0.00000804
     atom  220 type  1   force =    -0.00000489    0.00001851    0.00001353
     atom  221 type  1   force =    -0.00000688   -0.00002191    0.00001206
     atom  222 type  1   force =    -0.00002511    0.00000585   -0.00000224
     atom  223 type  1   force =    -0.00001843   -0.00001962   -0.00001154
     atom  224 type  1   force =     0.00000879   -0.00000137   -0.00000636
     atom  225 type  4   force =     0.00002165    0.00001938    0.00001928
     atom  226 type  2   force =    -0.00000646   -0.00000431   -0.00000740
     atom  227 type  2   force =    -0.00000466   -0.00000630   -0.00001494
     atom  228 type  2   force =    -0.00000458   -0.00000343   -0.00001037
     atom  229 type  2   force =     0.00000041   -0.00000296    0.00000645
     atom  230 type  2   force =    -0.00000809    0.00000202    0.00001332
     atom  231 type  2   force =    -0.00000008    0.00000117    0.00000592
     atom  232 type  2   force =    -0.00000242   -0.00000242   -0.00000143
     atom  233 type  2   force =    -0.00000258    0.00000046   -0.00000573
     atom  234 type  2   force =    -0.00000175   -0.00000404    0.00000171
     atom  235 type  2   force =    -0.00000778    0.00000317   -0.00000552
     atom  236 type  2   force =     0.00000037   -0.00000461    0.00000061
     atom  237 type  2   force =    -0.00000355    0.00000197   -0.00000173
     atom  238 type  2   force =     0.00000273   -0.00000119    0.00000012
     atom  239 type  2   force =    -0.00000182   -0.00000683   -0.00000715
     atom  240 type  3   force =     0.00000525    0.00000058   -0.00000416
     atom  241 type  3   force =    -0.00001250   -0.00002165   -0.00004173
     atom  242 type  1   force =     0.00001504    0.00000109   -0.00000131
     atom  243 type  1   force =     0.00000489   -0.00000011   -0.00003702
     atom  244 type  1   force =     0.00000939   -0.00001149   -0.00001857
     atom  245 type  1   force =    -0.00000622   -0.00000445   -0.00002687
     atom  246 type  1   force =    -0.00001243   -0.00001754   -0.00001813
     atom  247 type  1   force =    -0.00001035   -0.00001630    0.00001590
     atom  248 type  1   force =    -0.00000753    0.00002435    0.00000345
     atom  249 type  1   force =    -0.00000355   -0.00000280    0.00000456
     atom  250 type  4   force =    -0.00000544    0.00000548   -0.00000270
     atom  251 type  2   force =    -0.00000646   -0.00000315   -0.00000756
     atom  252 type  2   force =    -0.00000144   -0.00000364   -0.00000639
     atom  253 type  2   force =     0.00000406    0.00000024   -0.00000554
     atom  254 type  2   force =     0.00000702    0.00001319    0.00000546
     atom  255 type  2   force =    -0.00000322    0.00000309    0.00000166
     atom  256 type  2   force =    -0.00001158    0.00000117    0.00000039
     atom  257 type  2   force =     0.00000091    0.00000081    0.00000312
     atom  258 type  2   force =     0.00000216   -0.00000370    0.00000086
     atom  259 type  2   force =    -0.00000838   -0.00000276    0.00000130
     atom  260 type  2   force =    -0.00000384   -0.00000326   -0.00000454
     atom  261 type  2   force =    -0.00000454    0.00001150    0.00001004
     atom  262 type  2   force =     0.00001112   -0.00000073   -0.00000113
     atom  263 type  2   force =     0.00000299   -0.00000101    0.00000411
     atom  264 type  2   force =     0.00000035   -0.00000483    0.00000978
     atom  265 type  3   force =    -0.00001667   -0.00002852   -0.00003107
     atom  266 type  3   force =    -0.00001330    0.00002358   -0.00003362
     atom  267 type  1   force =    -0.00000032   -0.00002015   -0.00000781
     atom  268 type  1   force =     0.00000069   -0.00001612   -0.00001666
     atom  269 type  1   force =     0.00003661    0.00000460    0.00001035
     atom  270 type  1   force =    -0.00001717    0.00002499    0.00000802
     atom  271 type  1   force =    -0.00002226   -0.00002252    0.00001298
     atom  272 type  1   force =    -0.00000529   -0.00001485   -0.00000205
     atom  273 type  1   force =    -0.00002447    0.00001955    0.00000906
     atom  274 type  1   force =    -0.00000649    0.00001294   -0.00002304
     atom  275 type  4   force =     0.00000581   -0.00000124    0.00000100
     atom  276 type  2   force =    -0.00001246   -0.00001112   -0.00000766
     atom  277 type  2   force =    -0.00001016   -0.00000286   -0.00000917
     atom  278 type  2   force =     0.00000072   -0.00000150   -0.00000562
     atom  279 type  2   force =    -0.00000514    0.00000050    0.00000149
     atom  280 type  2   force =     0.00000008   -0.00000022    0.00000684
     atom  281 type  2   force =     0.00000590   -0.00000334    0.00001057
     atom  282 type  2   force =    -0.00000251    0.00000201   -0.00000017
     atom  283 type  2   force =    -0.00000003   -0.00000138   -0.00000048
     atom  284 type  2   force =    -0.00001181   -0.00000019    0.00001029
     atom  285 type  2   force =    -0.00000240    0.00000116   -0.00000523
     atom  286 type  2   force =     0.00000865    0.00000101    0.00000945
     atom  287 type  2   force =     0.00000615   -0.00000073   -0.00000626
     atom  288 type  2   force =     0.00000152   -0.00000268   -0.00000136
     atom  289 type  2   force =     0.00000696   -0.00000024   -0.00000556
     atom  290 type  3   force =    -0.00000896   -0.00003438    0.00002251
     atom  291 type  3   force =    -0.00004269    0.00001145   -0.00002825
     atom  292 type  1   force =    -0.00002677   -0.00001040   -0.00000967
     atom  293 type  1   force =    -0.00000924   -0.00000780    0.00002175
     atom  294 type  1   force =    -0.00000282    0.00000880   -0.00001468
     atom  295 type  1   force =    -0.00000722    0.00000466   -0.00001409
     atom  296 type  1   force =    -0.00001288    0.00000282   -0.00001884
     atom  297 type  1   force =     0.00001785    0.00001619   -0.00001309
     atom  298 type  1   force =     0.00000618   -0.00002518    0.00000093
     atom  299 type  1   force =    -0.00000673    0.00000370   -0.00001332
     atom  300 type  4   force =     0.00001647   -0.00000315    0.00000627

     Total force =     1.020330     Total SCF correction =     0.000523


     Computing stress (Cartesian axis) and pressure


     negative rho (up, down):  3.982E-02 0.000E+00
          total   stress  (Ry/bohr**3)                   (kbar)     P=        2.95
   0.00002032   0.00000968  -0.00001256            2.99        1.42       -1.85
   0.00000968   0.00004915  -0.00001153            1.42        7.23       -1.70
  -0.00001256  -0.00001153  -0.00000937           -1.85       -1.70       -1.38

     kinetic stress (kbar)   5331.27      1.94     -1.02
                                1.94   5334.34     -1.33
                               -1.02     -1.33   5325.92

     local   stress (kbar)-651572.14    -12.05    132.59
                              -12.05-651812.45     18.83
                              132.59     18.83 645315.71

     nonloc. stress (kbar)    957.83     -0.11      0.43
                               -0.11    957.63     -0.22
                                0.43     -0.22    954.26

     hartree stress (kbar) 326460.86      1.48    -45.36
                                1.48 326540.32     -7.38
                              -45.36     -7.38-320641.71

     exc-cor stress (kbar)  -1264.13      0.07     -0.21
                                0.07  -1263.69     -0.00
                               -0.21     -0.00  -1265.42

     corecor stress (kbar)   -292.83     -0.01      0.01
                               -0.01   -292.86      0.01
                                0.01      0.01   -292.76

     ewald   stress (kbar) 320382.12     10.11    -88.27
                               10.11 320543.94    -11.60
                              -88.27    -11.60-329397.37

     hubbard stress (kbar)      0.00      0.00      0.00
                                0.00      0.00      0.00
                                0.00      0.00      0.00

     DFT-D   stress (kbar)      0.00      0.00      0.00
                                0.00      0.00      0.00
                                0.00      0.00      0.00

     XDM     stress (kbar)      0.00      0.00      0.00
                                0.00      0.00      0.00
                                0.00      0.00      0.00

     dft-nl  stress (kbar)      0.00      0.00      0.00
                                0.00      0.00      0.00
                                0.00      0.00      0.00

     TS-vdW  stress (kbar)      0.00      0.00      0.00
                                0.00      0.00      0.00
                                0.00      0.00      0.00

     MDB     stress (kbar)      0.00      0.00      0.00
                                0.00      0.00      0.00
                                0.00      0.00      0.00

     3D-RISM stress (kbar)      0.00      0.00      0.00
                                0.00      0.00      0.00
                                0.00      0.00      0.00


     Writing all to output data dir ./tmp/pwscf.save/
 
     init_run     :     29.26s CPU     34.13s WALL (       1 calls)
     electrons    :     94.91s CPU    100.84s WALL (       1 calls)
     forces       :      3.13s CPU      3.36s WALL (       1 calls)
     stress       :     81.01s CPU     83.46s WALL (       1 calls)

     Called by init_run:
     wfcinit      :      3.49s CPU      5.48s WALL (       1 calls)
                                        5.48s GPU  (       1 calls)
     wfcinit:atom :      0.01s CPU      0.01s WALL (       1 calls)
                                        0.01s GPU  (       1 calls)
     wfcinit:wfcr :      1.26s CPU      2.50s WALL (       1 calls)
                                        2.50s GPU  (       1 calls)
     potinit      :     16.23s CPU     16.50s WALL (       1 calls)
     hinit0       :      7.20s CPU      7.44s WALL (       1 calls)

     Called by electrons:
     c_bands      :     59.23s CPU     60.65s WALL (      25 calls)
     sum_band     :     13.71s CPU     14.03s WALL (      25 calls)
     v_of_rho     :      2.80s CPU      2.95s WALL (      26 calls)
     v_h          :      1.53s CPU      1.62s WALL (      26 calls)
     v_xc         :      1.40s CPU      1.46s WALL (      28 calls)
     newd         :      2.17s CPU      4.28s WALL (      26 calls)
                                        4.28s GPU  (      26 calls)
     PAW_pot      :      2.83s CPU      2.84s WALL (      26 calls)
     mix_rho      :      6.73s CPU      7.01s WALL (      25 calls)

     Called by c_bands:
     init_us_2    :      0.39s CPU      0.53s WALL (      51 calls)
     init_us_2:gp :      0.39s CPU      0.53s WALL (      51 calls)
     regterg      :     51.32s CPU     52.58s WALL (      26 calls)

     Called by sum_band:
     sum_band:wei :      0.01s CPU      0.01s WALL (      25 calls)
                                        0.01s GPU  (      25 calls)
     sum_band:loo :     10.80s CPU     11.04s WALL (      25 calls)
                                       11.04s GPU  (      25 calls)
     sum_band:buf :      1.62s CPU      1.63s WALL (      25 calls)
                                        1.63s GPU  (      25 calls)
     sum_band:ini :      0.19s CPU      0.39s WALL (      25 calls)
                                        0.39s GPU  (      25 calls)
     sum_band:cal :      1.82s CPU      1.87s WALL (      25 calls)
                                        1.87s GPU  (      25 calls)
     sum_band:bec :      0.17s CPU      0.17s WALL (      25 calls)
                                        0.17s GPU  (      25 calls)
     addusdens    :      1.78s CPU      1.84s WALL (      25 calls)
                                        1.84s GPU  (      25 calls)
     addusd:skk   :      0.38s CPU      0.39s WALL (     100 calls)
                                        0.39s GPU  (     100 calls)

     Called by *egterg:
     rdiaghg      :      4.62s CPU      4.72s WALL (     173 calls)
                                        4.72s GPU  (     173 calls)
     regterg:over :      3.12s CPU      3.19s WALL (     147 calls)
     regterg:upda :      1.65s CPU      1.70s WALL (     147 calls)
     regterg:last :      3.46s CPU      3.48s WALL (      55 calls)
     h_psi        :     33.50s CPU     35.58s WALL (     174 calls)
                                       35.58s GPU  (     174 calls)
     s_psi        :      0.85s CPU      4.09s WALL (     174 calls)
                                        3.97s GPU  (     174 calls)
     g_psi        :      0.00s CPU      0.17s WALL (     147 calls)
                                        0.17s GPU  (     147 calls)

     Called by h_psi:
     h_psi:calbec :      4.76s CPU      5.00s WALL (     174 calls)
                                        5.00s GPU  (     174 calls)
     vloc_psi     :     25.03s CPU     26.25s WALL (     174 calls)
                                       26.25s GPU  (     174 calls)
     add_vuspsi   :      0.35s CPU      4.15s WALL (     174 calls)
                                        4.15s GPU  (     174 calls)

     General routines
     calbec       :      6.96s CPU      7.41s WALL (     204 calls)
     fft          :      5.00s CPU      6.69s WALL (     304 calls)
                                        0.65s GPU  (     278 calls)
     ffts         :      2.60s CPU      3.07s WALL (      51 calls)
                                        0.05s GPU  (      25 calls)
     fftw         :     15.13s CPU     25.59s WALL (   14056 calls)
                                       25.44s GPU  (   14056 calls)
     interpolate  :      8.14s CPU     10.14s WALL (      26 calls)
 
     Parallel routines

     PAW routines
     PAW_pot      :      2.83s CPU      2.84s WALL (      26 calls)
 
     PWSCF        :   3m30.63s CPU   3m49.39s WALL

 
   This run was terminated on:  14:46:19  30Dec2023            

=------------------------------------------------------------------------------=
   JOB DONE.
=------------------------------------------------------------------------------=
