
     Program PWSCF v.7.2 starts on 30Dec2023 at 13:51:52 

     This program is part of the open-source Quantum ESPRESSO suite
     for quantum simulation of materials; please cite
         "P. Giannozzi et al., J. Phys.:Condens. Matter 21 395502 (2009);
         "P. Giannozzi et al., J. Phys.:Condens. Matter 29 465901 (2017);
         "P. Giannozzi et al., J. Chem. Phys. 152 154105 (2020);
          URL http://www.quantum-espresso.org", 
     in publications or presentations arising from this work. More details at
     http://www.quantum-espresso.org/quote

     Parallel version (MPI & OpenMP), running on       4 processor cores
     Number of MPI processes:                 4
     Threads/MPI process:                     1

     MPI processes distributed on     1 nodes
     503996 MiB available memory on the printing compute node when the environment starts
 
     Reading input from input_0007.inp

     Current dimensions of program PWSCF are:
     Max number of different atomic species (ntypx) = 10
     Max number of k-points (npk) =  40000
     Max angular momentum in pseudopotentials (lmaxx) =  4
     file O.pbe-n-kjpaw_psl.0.1.UPF: wavefunction(s)  2P renormalized

     gamma-point specific algorithms are used
 
     R & G space division:  proc/nbgrp/npool/nimage =       4
     Subspace diagonalization in iterative solution of the eigenvalue problem:
     a serial algorithm will be used

 
     Parallelization info
     --------------------
     sticks:   dense  smooth     PW     G-vecs:    dense   smooth      PW
     Min        6485    4324   1079              2728975  1485363  185656
     Max        6486    4326   1080              2728990  1485382  185664
     Sum       25943   17301   4319             10915929  5941483  742635
 
     Using Slab Decomposition
 


     bravais-lattice index     =            0
     lattice parameter (alat)  =      32.3352  a.u.
     unit-cell volume          =   51510.8153 (a.u.)^3
     number of atoms/cell      =          300
     number of atomic types    =            4
     number of electrons       =      1392.00
     number of Kohn-Sham states=          835
     kinetic-energy cutoff     =      90.0000  Ry
     charge density cutoff     =     540.0000  Ry
     scf convergence threshold =      1.0E-07
     mixing beta               =       0.2000
     number of iterations used =            8  plain     mixing
     Exchange-correlation= SLA  PW   PBX  PBC
                           (   1   4   3   4   0   0   0)

     GPU acceleration is ACTIVE.
     GPU-aware MPI enabled


     GPU used by master process:

        Device Number: 0
        Device name: NVIDIA PG506-243
        Compute capability : 80
        Ratio of single to double precision performance  : 2
        Memory Clock Rate (KHz): 1593000
        Memory Bus Width (bits): 4096
        Peak Memory Bandwidth (GB/s): ******

     celldm(1)=  32.335181  celldm(2)=   0.000000  celldm(3)=   0.000000
     celldm(4)=   0.000000  celldm(5)=   0.000000  celldm(6)=   0.000000

     crystal axes: (cart. coord. in units of alat)
               a(1) = (   1.000000   0.000000   0.000000 )  
               a(2) = (  -0.333333   0.577350   0.000000 )  
               a(3) = (   0.000000  -0.000000   2.638962 )  

     reciprocal axes: (cart. coord. in units 2 pi/alat)
               b(1) = (  1.000000  0.577350  0.000000 )  
               b(2) = ( -0.000000  1.732051  0.000000 )  
               b(3) = (  0.000000 -0.000000  0.378937 )  


     PseudoPot. # 1 for N  read from file:
     /leonardo_scratch/large/userexternal/uraucci0/Li_Cr/PPS/N.pbe-n-radius_5.UPF
     MD5 check sum: 16739722b17309cd8fe442a2ace49922
     Pseudo is Ultrasoft + core correction, Zval =  5.0
     Generated using "atomic" code by A. Dal Corso  v.5.1
     Using radial grid of 1085 points,  4 beta functions with: 
                l(1) =   0
                l(2) =   0
                l(3) =   1
                l(4) =   1
     Q(r) pseudized with 0 coefficients 


     PseudoPot. # 2 for Li read from file:
     /leonardo_scratch/large/userexternal/uraucci0/Li_Cr/PPS/li_pbe_v1.4.uspp.F.UPF
     MD5 check sum: e912e257baa3777c20ea3d68f190483c
     Pseudo is Ultrasoft, Zval =  3.0
     Generated by new atomic code, or converted to UPF format
     Using radial grid of  751 points,  5 beta functions with: 
                l(1) =   0
                l(2) =   0
                l(3) =   0
                l(4) =   1
                l(5) =   1
     Q(r) pseudized with 10 coefficients,  rinner =    1.150   1.150   1.150


     PseudoPot. # 3 for Cr read from file:
     /leonardo_scratch/large/userexternal/uraucci0/Li_Cr/PPS/cr_pbe_v1.5.uspp.F.UPF
     MD5 check sum: 0d52af634a40206e4dee301ad30da4bf
     Pseudo is Ultrasoft + core correction, Zval = 14.0
     Generated by new atomic code, or converted to UPF format
     Using radial grid of  857 points,  6 beta functions with: 
                l(1) =   0
                l(2) =   0
                l(3) =   1
                l(4) =   1
                l(5) =   2
                l(6) =   2
     Q(r) pseudized with  8 coefficients,  rinner =    0.950   0.950   0.950
                                                       0.950   0.950

     PseudoPot. # 4 for O  read from file:
     /leonardo_scratch/large/userexternal/uraucci0/Li_Cr/PPS/O.pbe-n-kjpaw_psl.0.1.UPF
     MD5 check sum: 0234752ac141de4415c5fc33072bef88
     Pseudo is Projector augmented-wave + core cor, Zval =  6.0
     Generated using "atomic" code by A. Dal Corso  v.5.0.99 svn rev. 10869
     Shape of augmentation charge: BESSEL
     Using radial grid of 1095 points,  4 beta functions with: 
                l(1) =   0
                l(2) =   0
                l(3) =   1
                l(4) =   1
     Q(r) pseudized with 0 coefficients 


     atomic species   valence    mass     pseudopotential
        N              5.00    14.00674     N ( 1.00)
        Li             3.00     6.94100     Li( 1.00)
        Cr            14.00    51.99610     Cr( 1.00)
        O              6.00    15.99940     O ( 1.00)

     No symmetry found


                                    s                        frac. trans.

      isym =  1     identity                                     

 cryst.   s( 1) = (     1          0          0      )
                  (     0          1          0      )
                  (     0          0          1      )

 cart.    s( 1) = (  1.0000000  0.0000000  0.0000000 )
                  (  0.0000000  1.0000000  0.0000000 )
                  (  0.0000000  0.0000000  1.0000000 )


   Cartesian axes

     site n.     atom                  positions (alat units)
         1           Li  tau(   1) = (   0.2593273   0.0873080   0.8766270  )
         2           Li  tau(   2) = (   0.1280588   0.1809300   0.8766270  )
         3           Li  tau(   3) = (   0.1126144   0.0204373   0.8766270  )
         4           Li  tau(   4) = (  -0.0838102   0.2030911   1.2670065  )
         5           Li  tau(   5) = (   0.0190837   0.1191383   1.2935332  )
         6           Li  tau(   6) = (   0.0562500   0.2753742   1.2773799  )
         7           Li  tau(   7) = (   0.0669942   0.0904568   1.0336250  )
         8           Li  tau(   8) = (   0.2214985   0.0127904   1.0336250  )
         9           Li  tau(   9) = (   0.2115073   0.1854282   1.0336250  )
        10           Li  tau(  10) = (   0.1098361   0.2001596   1.1140059  )
        11           Li  tau(  11) = (  -0.0628395   0.2652574   1.1142864  )
        12           Li  tau(  12) = (  -0.0435131   0.1106403   1.1385514  )
        13           Li  tau(  13) = (   0.0000000   0.0000000   0.9626942  )
        14           Li  tau(  14) = (  -0.0023977  -0.0093825   1.1943166  )
        15           Cr  tau(  15) = (   0.1623385   0.1006146   1.2073140  )
        16           Cr  tau(  16) = (  -0.0000000   0.1924500   0.9478909  )
        17           N   tau(  17) = (   0.2555058   0.0880548   1.2452954  )
        18           N   tau(  18) = (   0.1679980   0.1036354   1.1061571  )
        19           N   tau(  19) = (  -0.0969339   0.1982778   0.9168466  )
        20           N   tau(  20) = (   0.0434200   0.1055885   0.9168466  )
        21           N   tau(  21) = (   0.0535141   0.2734837   0.9168466  )
        22           N   tau(  22) = (   0.1057113   0.0167108   1.2319706  )
        23           N   tau(  23) = (   0.1185825   0.1827551   1.2424726  )
        24           N   tau(  24) = (  -0.0000000   0.1924500   1.0497374  )
        25           O   tau(  25) = (   0.0094026  -0.0086894   1.0850889  )
        26           Li  tau(  26) = (   0.2501315   0.0912335   1.3837089  )
        27           Li  tau(  27) = (   0.1295374   0.1884923   1.3601569  )
        28           Li  tau(  28) = (   0.1061098   0.0119888   1.3513497  )
        29           Li  tau(  29) = (  -0.1170700   0.2166730   1.7732176  )
        30           Li  tau(  30) = (   0.0392765   0.1288098   1.7768527  )
        31           Li  tau(  31) = (   0.0504466   0.2855969   1.7866768  )
        32           Li  tau(  32) = (   0.0494300   0.0974453   1.5292173  )
        33           Li  tau(  33) = (   0.2180434   0.0190046   1.5426472  )
        34           Li  tau(  34) = (   0.1984222   0.1801772   1.5444881  )
        35           Li  tau(  35) = (   0.0725491   0.2123529   1.6372236  )
        36           Li  tau(  36) = (  -0.0758686   0.2697597   1.6449379  )
        37           Li  tau(  37) = (  -0.0655431   0.1094206   1.6162138  )
        38           Li  tau(  38) = (  -0.0006264  -0.0020810   1.4398539  )
        39           Li  tau(  39) = (   0.9916580   0.0127113   1.6962323  )
        40           Cr  tau(  40) = (   0.1563324   0.1036126   1.6967232  )
        41           Cr  tau(  41) = (  -0.0094468   0.1880476   1.4449910  )
        42           N   tau(  42) = (   0.2557296   0.0881776   1.7251843  )
        43           N   tau(  43) = (   0.1442683   0.1051368   1.5987630  )
        44           N   tau(  44) = (  -0.1011107   0.1937977   1.4121584  )
        45           N   tau(  45) = (   0.0510242   0.1118050   1.4148467  )
        46           N   tau(  46) = (   0.0501104   0.2720004   1.4103759  )
        47           N   tau(  47) = (   0.1009950   0.0323745   1.7441604  )
        48           N   tau(  48) = (   0.1310259   0.1940724   1.7463110  )
        49           N   tau(  49) = (  -0.0120838   0.1978477   1.5490232  )
        50           O   tau(  50) = (   0.9868540   0.0144721   1.5867708  )
        51           Li  tau(  51) = (   0.0926606   0.3759836   0.8766270  )
        52           Li  tau(  52) = (  -0.0386079   0.4696050   0.8766270  )
        53           Li  tau(  53) = (  -0.0540524   0.3091127   0.8766270  )
        54           Li  tau(  54) = (  -0.2492882   0.4845795   1.2525714  )
        55           Li  tau(  55) = (  -0.1318757   0.3897957   1.2667727  )
        56           Li  tau(  56) = (  -0.1196152   0.5545262   1.2932410  )
        57           Li  tau(  57) = (  -0.0996725   0.3791318   1.0336250  )
        58           Li  tau(  58) = (   0.0548319   0.3014656   1.0336250  )
        59           Li  tau(  59) = (   0.0448406   0.4741032   1.0336250  )
        60           Li  tau(  60) = (  -0.0703277   0.4881065   1.1152214  )
        61           Li  tau(  61) = (  -0.2059255   0.5761368   1.1192247  )
        62           Li  tau(  62) = (  -0.2100281   0.3811527   1.1188039  )
        63           Li  tau(  63) = (  -0.1666667   0.2886750   0.9626942  )
        64           Li  tau(  64) = (  -0.1608108   0.2852977   1.1997283  )
        65           Cr  tau(  65) = (  -0.0027080   0.3877327   1.1959062  )
        66           Cr  tau(  66) = (  -0.1666667   0.4811250   0.9478909  )
        67           N   tau(  67) = (   0.0917004   0.3823742   1.2397492  )
        68           N   tau(  68) = (  -0.0049048   0.3784393   1.0938376  )
        69           N   tau(  69) = (  -0.2636006   0.4869528   0.9168466  )
        70           N   tau(  70) = (  -0.1232467   0.3942641   0.9168466  )
        71           N   tau(  71) = (  -0.1131527   0.5621587   0.9168466  )
        72           N   tau(  72) = (  -0.0535530   0.3075166   1.2259453  )
        73           N   tau(  73) = (  -0.0518870   0.4742663   1.2357518  )
        74           N   tau(  74) = (  -0.1666667   0.4811250   1.0497374  )
        75           O   tau(  75) = (   0.8334385   0.2831108   1.0710394  )
        76           Li  tau(  76) = (   0.0985124   0.3694737   1.3671933  )
        77           Li  tau(  77) = (  -0.0381693   0.4625604   1.3719446  )
        78           Li  tau(  78) = (  -0.0504336   0.2981864   1.3617991  )
        79           Li  tau(  79) = (  -0.2707071   0.4982952   1.7687118  )
        80           Li  tau(  80) = (  -0.1305531   0.4005764   1.7939002  )
        81           Li  tau(  81) = (  -0.1312106   0.5741573   1.7920184  )
        82           Li  tau(  82) = (  -0.0894382   0.3658749   1.5230225  )
        83           Li  tau(  83) = (   0.0517372   0.2785395   1.5373699  )
        84           Li  tau(  84) = (   0.0371371   0.4713611   1.5515304  )
        85           Li  tau(  85) = (  -0.0839762   0.4983355   1.6428281  )
        86           Li  tau(  86) = (   0.1002405  -0.0121828   1.6184755  )
        87           Li  tau(  87) = (  -0.2144802   0.3948141   1.6224846  )
        88           Li  tau(  88) = (  -0.1707395   0.2986896   1.4385974  )
        89           Li  tau(  89) = (   0.8135975   0.2982788   1.7020414  )
        90           Cr  tau(  90) = (  -0.0028972   0.3919499   1.7171720  )
        91           Cr  tau(  91) = (  -0.1673107   0.4802350   1.4353422  )
        92           N   tau(  92) = (   0.0990437   0.3837692   1.7574559  )
        93           N   tau(  93) = (   0.0015843   0.3837043   1.6160676  )
        94           N   tau(  94) = (  -0.2606165   0.4769914   1.3964960  )
        95           N   tau(  95) = (  -0.1148042   0.4000078   1.3994823  )
        96           N   tau(  96) = (  -0.1130031   0.5624865   1.4048064  )
        97           N   tau(  97) = (  -0.0614568   0.3137407   1.7499169  )
        98           N   tau(  98) = (  -0.0515322   0.4730817   1.7551591  )
        99           N   tau(  99) = (  -0.1798242   0.5018415   1.5329517  )
       100           O   tau( 100) = (   0.8411879   0.2991460   1.5699220  )
       101           Li  tau( 101) = (   0.5926583   0.0873080   0.8766270  )
       102           Li  tau( 102) = (   0.4613921   0.1809300   0.8766270  )
       103           Li  tau( 103) = (   0.4459477   0.0204373   0.8766270  )
       104           Li  tau( 104) = (   0.2372503   0.2057701   1.2729559  )
       105           Li  tau( 105) = (   0.3554716   0.0984388   1.2910553  )
       106           Li  tau( 106) = (   0.3903351   0.2648950   1.2838786  )
       107           Li  tau( 107) = (   0.4003275   0.0904568   1.0336250  )
       108           Li  tau( 108) = (   0.5548318   0.0127904   1.0336250  )
       109           Li  tau( 109) = (   0.5448406   0.1854282   1.0336250  )
       110           Li  tau( 110) = (   0.4333173   0.1848047   1.1389605  )
       111           Li  tau( 111) = (   0.2744766   0.2664642   1.1105987  )
       112           Li  tau( 112) = (   0.2986388   0.1132970   1.1298962  )
       113           Li  tau( 113) = (   0.3333333   0.0000000   0.9626942  )
       114           Li  tau( 114) = (   0.0083323   0.5703908   1.1896062  )
       115           Cr  tau( 115) = (   0.5002928   0.0957405   1.2212232  )
       116           Cr  tau( 116) = (   0.3333333   0.1924500   0.9478909  )
       117           N   tau( 117) = (   0.5956213   0.0841959   1.2462713  )
       118           N   tau( 118) = (   0.4929081   0.1018214   1.1109552  )
       119           N   tau( 119) = (   0.2363994   0.1982778   0.9168466  )
       120           N   tau( 120) = (   0.3767532   0.1055885   0.9168466  )
       121           N   tau( 121) = (   0.3868473   0.2734837   0.9168466  )
       122           N   tau( 122) = (   0.4478436   0.0157367   1.2608818  )
       123           N   tau( 123) = (   0.4499907   0.1763575   1.2439044  )
       124           N   tau( 124) = (   0.3333333   0.1924500   1.0497374  )
       125           O   tau( 125) = (   0.0080410   0.5662443   1.0758784  )
       126           Li  tau( 126) = (   0.3337857   0.5741351   1.4450377  )
       127           Li  tau( 127) = (   0.4449443   0.1760337   1.3762167  )
       128           Li  tau( 128) = (   0.5920972   0.0821657   1.3710563  )
       129           Li  tau( 129) = (   0.2403378   0.2153136   1.7733462  )
       130           Li  tau( 130) = (   0.3658375   0.1100699   1.7654390  )
       131           Li  tau( 131) = (   0.3885088   0.2771386   1.7770573  )
       132           Li  tau( 132) = (   0.3997758   0.0954764   1.5250270  )
       133           Li  tau( 133) = (   0.1010628   0.5672747   1.6113806  )
       134           Li  tau( 134) = (   0.5426192   0.1930011   1.5221984  )
       135           Li  tau( 135) = (   0.4125313   0.1831022   1.6210060  )
       136           Li  tau( 136) = (   0.2723505   0.2782297   1.6332262  )
       137           Li  tau( 137) = (   0.2900881   0.1014772   1.6229229  )
       138           Li  tau( 138) = (   0.4446982   0.0361312   1.3775199  )
       139           Li  tau( 139) = (   0.0011563   0.5614661   1.7067927  )
       140           Cr  tau( 140) = (   0.4938151   0.0994785   1.7059394  )
       141           Cr  tau( 141) = (   0.3230575   0.1940566   1.4560599  )
       142           N   tau( 142) = (   0.5923544   0.1072863   1.7229519  )
       143           N   tau( 143) = (   0.4861230   0.0986264   1.6036663  )
       144           N   tau( 144) = (   0.2284081   0.1944692   1.4230987  )
       145           N   tau( 145) = (   0.3612422   0.0975867   1.4128305  )
       146           N   tau( 146) = (   0.3825378   0.2700122   1.4275461  )
       147           N   tau( 147) = (   0.4517732   0.0087020   1.7409811  )
       148           N   tau( 148) = (   0.4446170   0.1825406   1.7352422  )
       149           N   tau( 149) = (   0.3194031   0.1874369   1.5539732  )
       150           O   tau( 150) = (  -0.0089446   0.5569357   1.5954961  )
       151           Li  tau( 151) = (   0.4259940   0.3759836   0.8766270  )
       152           Li  tau( 152) = (   0.2947255   0.4696050   0.8766270  )
       153           Li  tau( 153) = (   0.2792811   0.3091127   0.8766270  )
       154           Li  tau( 154) = (   0.0801599   0.4786097   1.2807637  )
       155           Li  tau( 155) = (   0.2087208   0.4022572   1.2708052  )
       156           Li  tau( 156) = (   0.2177576   0.5603499   1.2907455  )
       157           Li  tau( 157) = (   0.2336608   0.3791318   1.0336250  )
       158           Li  tau( 158) = (   0.3881652   0.3014656   1.0336250  )
       159           Li  tau( 159) = (   0.3781739   0.4741032   1.0336250  )
       160           Li  tau( 160) = (   0.2472579   0.4994787   1.1236955  )
       161           Li  tau( 161) = (   0.1154383   0.5668270   1.1140643  )
       162           Li  tau( 162) = (   0.1179478   0.4041934   1.1226786  )
       163           Li  tau( 163) = (   0.1666667   0.2886750   0.9626942  )
       164           Li  tau( 164) = (   0.1757094   0.2832639   1.1967711  )
       165           Cr  tau( 165) = (   0.3391529   0.3842168   1.2118257  )
       166           Cr  tau( 166) = (   0.1666667   0.4811250   0.9478909  )
       167           N   tau( 167) = (   0.4369752   0.3767088   1.2413973  )
       168           N   tau( 168) = (   0.3269497   0.3867199   1.1170799  )
       169           N   tau( 169) = (   0.0697328   0.4869528   0.9168466  )
       170           N   tau( 170) = (   0.2100866   0.3942641   0.9168466  )
       171           N   tau( 171) = (   0.2201806   0.5621587   0.9168466  )
       172           N   tau( 172) = (   0.2812552   0.3001390   1.2372245  )
       173           N   tau( 173) = (   0.2955069   0.4719701   1.2460200  )
       174           N   tau( 174) = (   0.1666667   0.4811250   1.0497374  )
       175           O   tau( 175) = (   0.1752062   0.2861246   1.0776434  )
       176           Li  tau( 176) = (   0.4147159   0.3737002   1.3863855  )
       177           Li  tau( 177) = (   0.2946624   0.4568705   1.3763277  )
       178           Li  tau( 178) = (   0.2720103   0.3048762   1.3725933  )
       179           Li  tau( 179) = (   0.0800729   0.4874993   1.7739482  )
       180           Li  tau( 180) = (   0.2096185   0.3783382   1.7980846  )
       181           Li  tau( 181) = (   0.2174304   0.5680782   1.7667072  )
       182           Li  tau( 182) = (   0.2389136   0.3872424   1.5571174  )
       183           Li  tau( 183) = (   0.3836914   0.2955542   1.5512674  )
       184           Li  tau( 184) = (   0.3851274   0.4591281   1.5396024  )
       185           Li  tau( 185) = (   0.2644065   0.4761458   1.6298015  )
       186           Li  tau( 186) = (  -0.0188624   0.5500939   1.4450786  )
       187           Li  tau( 187) = (   0.1095287   0.3768099   1.6056767  )
       188           Li  tau( 188) = (   0.1617628   0.2913359   1.4694255  )
       189           Li  tau( 189) = (   0.1535541   0.2937969   1.6965186  )
       190           Cr  tau( 190) = (   0.3278000   0.3873809   1.7161200  )
       191           Cr  tau( 191) = (   0.1594807   0.4749781   1.4545111  )
       192           N   tau( 192) = (   0.4248245   0.3848445   1.7550306  )
       193           N   tau( 193) = (   0.3263998   0.3817529   1.6125436  )
       194           N   tau( 194) = (   0.0611728   0.4850272   1.4152441  )
       195           N   tau( 195) = (   0.2103753   0.3966825   1.4134207  )
       196           N   tau( 196) = (   0.2248373   0.5519600   1.4206266  )
       197           N   tau( 197) = (   0.2927057   0.3008847   1.7557845  )
       198           N   tau( 198) = (   0.2754865   0.4712121   1.7436928  )
       199           N   tau( 199) = (   0.1568619   0.4747367   1.5552122  )
       200           O   tau( 200) = (   0.1535535   0.2817888   1.5806811  )
       201           Li  tau( 201) = (   0.9259927   0.0873080   0.8766270  )
       202           Li  tau( 202) = (   0.7947266   0.1809300   0.8766270  )
       203           Li  tau( 203) = (   0.7792805   0.0204373   0.8766270  )
       204           Li  tau( 204) = (   0.5726344   0.1907231   1.2789812  )
       205           Li  tau( 205) = (   0.7117217   0.0977918   1.2996112  )
       206           Li  tau( 206) = (   0.7261101   0.2680316   1.2720091  )
       207           Li  tau( 207) = (   0.7336608   0.0904568   1.0336250  )
       208           Li  tau( 208) = (   0.8881634   0.0127904   1.0336250  )
       209           Li  tau( 209) = (   0.8781757   0.1854282   1.0336250  )
       210           Li  tau( 210) = (   0.7594745   0.2041910   1.1214397  )
       211           Li  tau( 211) = (   0.6115408   0.2744135   1.1183247  )
       212           Li  tau( 212) = (   0.6242577   0.0988672   1.1392469  )
       213           Li  tau( 213) = (   0.6666690   0.0000000   0.9626942  )
       214           Li  tau( 214) = (   0.3363811   0.5776808   1.2072439  )
       215           Cr  tau( 215) = (   0.8286579   0.0928722   1.2074075  )
       216           Cr  tau( 216) = (   0.6666690   0.1924500   0.9478909  )
       217           N   tau( 217) = (   0.9285993   0.0828646   1.2340219  )
       218           N   tau( 218) = (   0.8298677   0.0991348   1.1041292  )
       219           N   tau( 219) = (   0.5697327   0.1982778   0.9168466  )
       220           N   tau( 220) = (   0.7100854   0.1055885   0.9168466  )
       221           N   tau( 221) = (   0.7201783   0.2734837   0.9168466  )
       222           N   tau( 222) = (   0.7792863   0.0203077   1.2429109  )
       223           N   tau( 223) = (   0.7838623   0.1748532   1.2422155  )
       224           N   tau( 224) = (   0.6666690   0.1924500   1.0497374  )
       225           O   tau( 225) = (   0.3289987   0.5665926   1.0820791  )
       226           Li  tau( 226) = (   0.9171154   0.0868457   1.3720790  )
       227           Li  tau( 227) = (   0.7878889   0.1913601   1.3604140  )
       228           Li  tau( 228) = (   0.7984611   0.0199530   1.3979512  )
       229           Li  tau( 229) = (   0.5598753   0.2098493   1.7633176  )
       230           Li  tau( 230) = (   0.6915593   0.1165423   1.7750761  )
       231           Li  tau( 231) = (   0.6925119   0.2673519   1.7773319  )
       232           Li  tau( 232) = (   0.7306686   0.0888917   1.5252491  )
       233           Li  tau( 233) = (   0.8772055   0.0293743   1.5196621  )
       234           Li  tau( 234) = (   0.8653185   0.1916494   1.5322504  )
       235           Li  tau( 235) = (   0.7282841   0.1813601   1.6248748  )
       236           Li  tau( 236) = (   0.6093142   0.2832802   1.6175930  )
       237           Li  tau( 237) = (   0.6070116   0.1209465   1.6153079  )
       238           Li  tau( 238) = (   0.5530628   0.0157882   1.5473284  )
       239           Li  tau( 239) = (   0.3296205   0.5920446   1.6875478  )
       240           Cr  tau( 240) = (   0.8191728   0.1161531   1.7042446  )
       241           Cr  tau( 241) = (   0.6637293   0.1921555   1.4377150  )
       242           N   tau( 242) = (   0.9099388   0.1110768   1.7375331  )
       243           N   tau( 243) = (   0.8277229   0.1095462   1.6004695  )
       244           N   tau( 244) = (   0.5638085   0.1990270   1.4126201  )
       245           N   tau( 245) = (   0.7125224   0.1033461   1.4102240  )
       246           N   tau( 246) = (   0.7253445   0.2663292   1.4042337  )
       247           N   tau( 247) = (   0.7596031   0.0387193   1.7335707  )
       248           N   tau( 248) = (   0.7867084   0.2061184   1.7506533  )
       249           N   tau( 249) = (   0.6583059   0.2068045   1.5374401  )
       250           O   tau( 250) = (   0.6748508   0.0068973   1.5752870  )
       251           Li  tau( 251) = (   0.7593284   0.3759836   0.8766270  )
       252           Li  tau( 252) = (   0.6280565   0.4696050   0.8766270  )
       253           Li  tau( 253) = (   0.6126161   0.3091127   0.8766270  )
       254           Li  tau( 254) = (   0.4030269   0.4857168   1.2917507  )
       255           Li  tau( 255) = (   0.5326619   0.3862635   1.2790163  )
       256           Li  tau( 256) = (   0.5418098   0.5497895   1.2645753  )
       257           Li  tau( 257) = (   0.5669941   0.3791318   1.0336250  )
       258           Li  tau( 258) = (   0.7214991   0.3014656   1.0336250  )
       259           Li  tau( 259) = (   0.7115055   0.4741032   1.0336250  )
       260           Li  tau( 260) = (   0.6049486   0.4713097   1.1098390  )
       261           Li  tau( 261) = (   0.4436142   0.5533579   1.1164020  )
       262           Li  tau( 262) = (   0.4652505   0.3980073   1.1395625  )
       263           Li  tau( 263) = (   0.5000000   0.2886750   0.9626942  )
       264           Li  tau( 264) = (   0.5146017   0.2969422   1.1948835  )
       265           Cr  tau( 265) = (   0.6619235   0.3747750   1.1938081  )
       266           Cr  tau( 266) = (   0.5000000   0.4811250   0.9478909  )
       267           N   tau( 267) = (   0.7639044   0.3742245   1.2257290  )
       268           N   tau( 268) = (   0.6588904   0.3832502   1.0934402  )
       269           N   tau( 269) = (   0.4030661   0.4869528   0.9168466  )
       270           N   tau( 270) = (   0.5434199   0.3942641   0.9168466  )
       271           N   tau( 271) = (   0.5535140   0.5621587   0.9168466  )
       272           N   tau( 272) = (   0.6207162   0.2873829   1.2371544  )
       273           N   tau( 273) = (   0.6246435   0.4601327   1.2352667  )
       274           N   tau( 274) = (   0.5000000   0.4811250   1.0497374  )
       275           O   tau( 275) = (   0.5036567   0.2927665   1.0681174  )
       276           Li  tau( 276) = (   0.7600706   0.3810604   1.3504029  )
       277           Li  tau( 277) = (   0.6099512   0.4763568   1.3523315  )
       278           Li  tau( 278) = (   0.6314286   0.3138541   1.3573107  )
       279           Li  tau( 279) = (   0.3874580   0.5151095   1.7975703  )
       280           Li  tau( 280) = (   0.5304692   0.3773563   1.8006736  )
       281           Li  tau( 281) = (   0.5324305   0.5740633   1.7576955  )
       282           Li  tau( 282) = (   0.5768772   0.3567527   1.5147646  )
       283           Li  tau( 283) = (   0.7448407   0.2852001   1.5213043  )
       284           Li  tau( 284) = (   0.7092029   0.4690182   1.5242614  )
       285           Li  tau( 285) = (   0.6080577   0.4957962   1.5969163  )
       286           Li  tau( 286) = (   0.4283556   0.5718454   1.6176923  )
       287           Li  tau( 287) = (   0.5051376   0.4255662   1.6510217  )
       288           Li  tau( 288) = (   0.4933820   0.2946682   1.4580293  )
       289           Li  tau( 289) = (   0.4852294   0.2963134   1.6788575  )
       290           Cr  tau( 290) = (   0.6554949   0.3949719   1.7020940  )
       291           Cr  tau( 291) = (   0.5015352   0.4785553   1.4484683  )
       292           N   tau( 292) = (   0.7428303   0.3891417   1.7517344  )
       293           N   tau( 293) = (   0.6671073   0.3853535   1.5965890  )
       294           N   tau( 294) = (   0.4001194   0.4866425   1.4113460  )
       295           N   tau( 295) = (   0.5476213   0.3932478   1.4097564  )
       296           N   tau( 296) = (   0.5518010   0.5655565   1.4176987  )
       297           N   tau( 297) = (   0.5937336   0.3125567   1.7316538  )
       298           N   tau( 298) = (   0.6135629   0.4740173   1.7292051  )
       299           N   tau( 299) = (   0.4976547   0.4763334   1.5441901  )
       300           O   tau( 300) = (   0.5007480   0.2834889   1.5674149  )

   Crystallographic axes

     site n.     atom                  positions (cryst. coord.)
         1           Li  tau(   1) = (  0.3097346  0.1512218  0.3321863  )
         2           Li  tau(   2) = (  0.2325188  0.3133799  0.3321863  )
         3           Li  tau(   3) = (  0.1244139  0.0353984  0.3321863  )
         4           Li  tau(   4) = (  0.0334445  0.3517641  0.4801155  )
         5           Li  tau(   5) = (  0.0878682  0.2063536  0.4901674  )
         6           Li  tau(   6) = (  0.2152374  0.4769622  0.4840463  )
         7           Li  tau(   7) = (  0.1192194  0.1566758  0.3916786  )
         8           Li  tau(   8) = (  0.2288830  0.0221536  0.3916786  )
         9           Li  tau(   9) = (  0.3185643  0.3211711  0.3916786  )
        10           Li  tau(  10) = (  0.2253983  0.3466867  0.4221379  )
        11           Li  tau(  11) = (  0.0903069  0.4594393  0.4222442  )
        12           Li  tau(  12) = (  0.0203651  0.1916345  0.4314391  )
        13           Li  tau(  13) = (  0.0000000  0.0000000  0.3648003  )
        14           Li  tau(  14) = ( -0.0078147 -0.0162510  0.4525706  )
        15           Cr  tau(  15) = (  0.2204283  0.1742695  0.4574958  )
        16           Cr  tau(  16) = (  0.1111111  0.3333332  0.3591908  )
        17           N   tau(  17) = (  0.3063443  0.1525155  0.4718883  )
        18           N   tau(  18) = (  0.2278319  0.1795018  0.4191637  )
        19           N   tau(  19) = (  0.0175419  0.3434273  0.3474270  )
        20           N   tau(  20) = (  0.1043816  0.1828847  0.3474270  )
        21           N   tau(  21) = (  0.2114100  0.4736876  0.3474270  )
        22           N   tau(  22) = (  0.1153593  0.0289439  0.4668391  )
        23           N   tau(  23) = (  0.2240962  0.3165411  0.4708187  )
        24           N   tau(  24) = (  0.1111111  0.3333332  0.3977842  )
        25           O   tau(  25) = (  0.0043857 -0.0150505  0.4111802  )
        26           Li  tau(  26) = (  0.3028052  0.1580210  0.5243383  )
        27           Li  tau(  27) = (  0.2383635  0.3264783  0.5154136  )
        28           Li  tau(  28) = (  0.1130316  0.0207652  0.5120762  )
        29           Li  tau(  29) = (  0.0080262  0.3752886  0.6719375  )
        30           Li  tau(  30) = (  0.1136449  0.2231051  0.6733150  )
        31           Li  tau(  31) = (  0.2153360  0.4946683  0.6770377  )
        32           Li  tau(  32) = (  0.1056900  0.1687802  0.5794768  )
        33           Li  tau(  33) = (  0.2290158  0.0329170  0.5845659  )
        34           Li  tau(  34) = (  0.3024475  0.3120761  0.5852635  )
        35           Li  tau(  35) = (  0.1951511  0.3678061  0.6204044  )
        36           Li  tau(  36) = (  0.0798773  0.4672376  0.6233276  )
        37           Li  tau(  37) = ( -0.0023691  0.1895220  0.6124430  )
        38           Li  tau(  38) = ( -0.0018278 -0.0036043  0.5456137  )
        39           Li  tau(  39) = (  0.9989968  0.0220166  0.6427649  )
        40           Cr  tau(  40) = (  0.2161532  0.1794623  0.6429510  )
        41           Cr  tau(  41) = (  0.0991225  0.3257080  0.5475603  )
        42           N   tau(  42) = (  0.3066390  0.1527280  0.6537359  )
        43           N   tau(  43) = (  0.2049690  0.1821023  0.6058302  )
        44           N   tau(  44) = (  0.0107784  0.3356674  0.5351189  )
        45           N   tau(  45) = (  0.1155748  0.1936519  0.5361376  )
        46           N   tau(  46) = (  0.2071499  0.4711185  0.5344434  )
        47           N   tau(  47) = (  0.1196865  0.0560743  0.6609267  )
        48           N   tau(  48) = (  0.2430737  0.3361432  0.6617416  )
        49           N   tau(  49) = (  0.1021436  0.3426823  0.5869820  )
        50           O   tau(  50) = (  0.9952095  0.0250663  0.6012859  )
        51           Li  tau(  51) = (  0.3097348  0.6512226  0.3321863  )
        52           Li  tau(  52) = (  0.2325186  0.8133797  0.3321863  )
        53           Li  tau(  53) = (  0.1244139  0.5353989  0.3321863  )
        54           Li  tau(  54) = (  0.0304840  0.8393163  0.4746455  )
        55           Li  tau(  55) = (  0.0931730  0.6751459  0.4800269  )
        56           Li  tau(  56) = (  0.2005407  0.9604675  0.4900567  )
        57           Li  tau(  57) = (  0.1192194  0.6566756  0.3916786  )
        58           Li  tau(  58) = (  0.2288831  0.5221537  0.3916786  )
        59           Li  tau(  59) = (  0.3185642  0.8211709  0.3916786  )
        60           Li  tau(  60) = (  0.2114807  0.8454252  0.4225985  )
        61           Li  tau(  61) = (  0.1267072  0.9978982  0.4241155  )
        62           Li  tau(  62) = (  0.0100305  0.6601759  0.4239560  )
        63           Li  tau(  63) = ( -0.0000001  0.4999998  0.3648003  )
        64           Li  tau(  64) = (  0.0039059  0.4941500  0.4546213  )
        65           Cr  tau(  65) = (  0.2211495  0.6715727  0.4531729  )
        66           Cr  tau(  66) = (  0.1111110  0.8333330  0.3591908  )
        67           N   tau(  67) = (  0.3124643  0.6622915  0.4697867  )
        68           N   tau(  68) = (  0.2135872  0.6554761  0.4144954  )
        69           N   tau(  69) = (  0.0175418  0.8434271  0.3474270  )
        70           N   tau(  70) = (  0.1043818  0.6828855  0.3474270  )
        71           N   tau(  71) = (  0.2114098  0.9736874  0.3474270  )
        72           N   tau(  72) = (  0.1239918  0.5326345  0.4645559  )
        73           N   tau(  73) = (  0.2219307  0.8214533  0.4682719  )
        74           N   tau(  74) = (  0.1111110  0.8333330  0.3977842  )
        75           O   tau(  75) = (  0.9968926  0.4903622  0.4058563  )
        76           Li  tau(  76) = (  0.3118282  0.6399473  0.5180799  )
        77           Li  tau(  77) = (  0.2288901  0.8011781  0.5198804  )
        78           Li  tau(  78) = (  0.1217244  0.5164740  0.5160359  )
        79           Li  tau(  79) = (  0.0169838  0.8630726  0.6702301  )
        80           Li  tau(  80) = (  0.1007198  0.6938188  0.6797749  )
        81           Li  tau(  81) = (  0.2002793  0.9944697  0.6790618  )
        82           Li  tau(  82) = (  0.1217998  0.6337139  0.5771294  )
        83           Li  tau(  83) = (  0.2125520  0.4824445  0.5825661  )
        84           Li  tau(  84) = (  0.3092776  0.8164215  0.5879321  )
        85           Li  tau(  85) = (  0.2037380  0.8631425  0.6225281  )
        86           Li  tau(  86) = (  0.0932068 -0.0211013  0.6133000  )
        87           Li  tau(  87) = (  0.0134658  0.6838381  0.6148192  )
        88           Li  tau(  88) = (  0.0017091  0.5173456  0.5451376  )
        89           Li  tau(  89) = (  0.9858088  0.5166340  0.6449662  )
        90           Cr  tau(  90) = (  0.2233952  0.6788771  0.6506998  )
        91           Cr  tau(  91) = (  0.1099531  0.8317913  0.5439041  )
        92           N   tau(  92) = (  0.3206129  0.6647077  0.6659648  )
        93           N   tau(  93) = (  0.2231160  0.6645953  0.6123876  )
        94           N   tau(  94) = (  0.0147746  0.8261734  0.5291838  )
        95           N   tau(  95) = (  0.1161404  0.6928338  0.5303154  )
        96           N   tau(  96) = (  0.2117487  0.9742552  0.5323329  )
        97           N   tau(  97) = (  0.1196815  0.5434148  0.6631080  )
        98           N   tau(  98) = (  0.2216016  0.8194015  0.6650945  )
        99           N   tau(  99) = (  0.1099141  0.8692149  0.5808919  )
       100           O   tau( 100) = (  1.0138999  0.5181361  0.5949013  )
       101           Li  tau( 101) = (  0.6430655  0.1512218  0.3321863  )
       102           Li  tau( 102) = (  0.5658521  0.3133799  0.3321863  )
       103           Li  tau( 103) = (  0.4577472  0.0353984  0.3321863  )
       104           Li  tau( 104) = (  0.3560517  0.3564042  0.4823699  )
       105           Li  tau( 105) = (  0.4123053  0.1705010  0.4892284  )
       106           Li  tau( 106) = (  0.5432723  0.4588117  0.4865089  )
       107           Li  tau( 107) = (  0.4525527  0.1566758  0.3916786  )
       108           Li  tau( 108) = (  0.5622164  0.0221536  0.3916786  )
       109           Li  tau( 109) = (  0.6518976  0.3211711  0.3916786  )
       110           Li  tau( 110) = (  0.5400143  0.3200910  0.4315941  )
       111           Li  tau( 111) = (  0.4283198  0.4615295  0.4208468  )
       112           Li  tau( 112) = (  0.3640508  0.1962362  0.4281593  )
       113           Li  tau( 113) = (  0.3333333  0.0000000  0.3648003  )
       114           Li  tau( 114) = (  0.3376475  0.9879458  0.4507856  )
       115           Cr  tau( 115) = (  0.5555686  0.1658274  0.4627665  )
       116           Cr  tau( 116) = (  0.4444444  0.3333332  0.3591908  )
       117           N   tau( 117) = (  0.6442318  0.1458316  0.4722581  )
       118           N   tau( 118) = (  0.5516947  0.1763598  0.4209819  )
       119           N   tau( 119) = (  0.3508752  0.3434273  0.3474270  )
       120           N   tau( 120) = (  0.4377148  0.1828847  0.3474270  )
       121           N   tau( 121) = (  0.5447432  0.4736876  0.3474270  )
       122           N   tau( 122) = (  0.4569292  0.0272568  0.4777946  )
       123           N   tau( 123) = (  0.5518108  0.3054601  0.4713612  )
       124           N   tau( 124) = (  0.4444444  0.3333332  0.3977842  )
       125           O   tau( 125) = (  0.3349623  0.9807639  0.4076900  )
       126           Li  tau( 126) = (  0.6652627  0.9944312  0.5475781  )
       127           Li  tau( 127) = (  0.5465774  0.3048993  0.5214992  )
       128           Li  tau( 128) = (  0.6395356  0.1423151  0.5195438  )
       129           Li  tau( 129) = (  0.3646492  0.3729341  0.6719863  )
       130           Li  tau( 130) = (  0.4293863  0.1906466  0.6689899  )
       131           Li  tau( 131) = (  0.5485148  0.4800181  0.6733925  )
       132           Li  tau( 132) = (  0.4548991  0.1653699  0.5778890  )
       133           Li  tau( 133) = (  0.4285790  0.9825485  0.6106115  )
       134           Li  tau( 134) = (  0.6540485  0.3342877  0.5768171  )
       135           Li  tau( 135) = (  0.5182454  0.3171424  0.6142589  )
       136           Li  tau( 136) = (  0.4329865  0.4819080  0.6188896  )
       137           Li  tau( 137) = (  0.3486760  0.1757636  0.6149853  )
       138           Li  tau( 138) = (  0.4655586  0.0625810  0.5219931  )
       139           Li  tau( 139) = (  0.3253190  0.9724879  0.6467667  )
       140           Cr  tau( 140) = (  0.5512490  0.1723017  0.6464433  )
       141           Cr  tau( 141) = (  0.4350961  0.3361158  0.5517548  )
       142           N   tau( 142) = (  0.6542961  0.1858253  0.6528900  )
       143           N   tau( 143) = (  0.5430649  0.1708259  0.6076883  )
       144           N   tau( 144) = (  0.3406849  0.3368305  0.5392645  )
       145           N   tau( 145) = (  0.4175839  0.1690251  0.5353735  )
       146           N   tau( 146) = (  0.5384294  0.4676749  0.5409498  )
       147           N   tau( 147) = (  0.4567973  0.0150724  0.6597219  )
       148           N   tau( 148) = (  0.5500069  0.3161696  0.6575472  )
       149           N   tau( 149) = (  0.4276199  0.3246502  0.5888577  )
       150           O   tau( 150) = (  0.3126024  0.9646410  0.6045923  )
       151           Li  tau( 151) = (  0.6430682  0.6512226  0.3321863  )
       152           Li  tau( 152) = (  0.5658520  0.8133797  0.3321863  )
       153           Li  tau( 153) = (  0.4577474  0.5353989  0.3321863  )
       154           Li  tau( 154) = (  0.3564854  0.8289763  0.4853286  )
       155           Li  tau( 155) = (  0.4409641  0.6967300  0.4815549  )
       156           Li  tau( 156) = (  0.5412758  0.9705545  0.4891111  )
       157           Li  tau( 157) = (  0.4525527  0.6566756  0.3916786  )
       158           Li  tau( 158) = (  0.5622164  0.5221537  0.3916786  )
       159           Li  tau( 159) = (  0.6518976  0.8211709  0.3916786  )
       160           Li  tau( 160) = (  0.5356320  0.8651224  0.4258096  )
       161           Li  tau( 161) = (  0.4426960  0.9817732  0.4221600  )
       162           Li  tau( 162) = (  0.3513090  0.7000835  0.4254243  )
       163           Li  tau( 163) = (  0.3333333  0.4999998  0.3648003  )
       164           Li  tau( 164) = (  0.3392518  0.4906274  0.4535007  )
       165           Cr  tau( 165) = (  0.5609806  0.6654831  0.4592054  )
       166           Cr  tau( 166) = (  0.4444443  0.8333330  0.3591908  )
       167           N   tau( 167) = (  0.6544681  0.6524788  0.4704112  )
       168           N   tau( 168) = (  0.5502225  0.6698185  0.4233027  )
       169           N   tau( 169) = (  0.3508751  0.8434271  0.3474270  )
       170           N   tau( 170) = (  0.4377151  0.6828855  0.3474270  )
       171           N   tau( 171) = (  0.5447431  0.9736874  0.3474270  )
       172           N   tau( 172) = (  0.4545405  0.5198559  0.4688300  )
       173           N   tau( 173) = (  0.5679989  0.8174762  0.4721629  )
       174           N   tau( 174) = (  0.4444443  0.8333330  0.3977842  )
       175           O   tau( 175) = (  0.3404003  0.4955824  0.4083588  )
       176           Li  tau( 176) = (  0.6304718  0.6472678  0.5253526  )
       177           Li  tau( 177) = (  0.5584367  0.7913229  0.5215413  )
       178           Li  tau( 178) = (  0.4480307  0.5280611  0.5201262  )
       179           Li  tau( 179) = (  0.3615307  0.8443735  0.6722144  )
       180           Li  tau( 180) = (  0.4280521  0.6553009  0.6813605  )
       181           Li  tau( 181) = (  0.5454105  0.9839404  0.6694705  )
       182           Li  tau( 182) = (  0.4624881  0.6707234  0.5900492  )
       183           Li  tau( 183) = (  0.5543297  0.5119149  0.5878324  )
       184           Li  tau( 184) = (  0.6502051  0.7952332  0.5834121  )
       185           Li  tau( 185) = (  0.5393094  0.8247087  0.6175919  )
       186           Li  tau( 186) = (  0.2987344  0.9527907  0.5475936  )
       187           Li  tau( 187) = (  0.3270800  0.6526539  0.6084501  )
       188           Li  tau( 188) = (  0.3299656  0.5046085  0.5568195  )
       189           Li  tau( 189) = (  0.3231778  0.5088711  0.6428734  )
       190           Cr  tau( 190) = (  0.5514545  0.6709633  0.6503011  )
       191           Cr  tau( 191) = (  0.4337094  0.8226862  0.5511679  )
       192           N   tau( 192) = (  0.6470146  0.6665702  0.6650458  )
       193           N   tau( 193) = (  0.5468049  0.6612155  0.6110522  )
       194           N   tau( 194) = (  0.3412034  0.8400917  0.5362882  )
       195           N   tau( 195) = (  0.4394000  0.6870742  0.5355972  )
       196           N   tau( 196) = (  0.5435115  0.9560227  0.5383278  )
       197           N   tau( 197) = (  0.4664216  0.5211475  0.6653315  )
       198           N   tau( 198) = (  0.5475409  0.8161633  0.6607495  )
       199           N   tau( 199) = (  0.4309513  0.8222682  0.5893272  )
       200           O   tau( 200) = (  0.3162443  0.4880725  0.5989784  )
       201           Li  tau( 201) = (  0.9764000  0.1512218  0.3321863  )
       202           Li  tau( 202) = (  0.8991866  0.3133799  0.3321863  )
       203           Li  tau( 203) = (  0.7910799  0.0353984  0.3321863  )
       204           Li  tau( 204) = (  0.6827484  0.3303420  0.4846531  )
       205           Li  tau( 205) = (  0.7681819  0.1693804  0.4924706  )
       206           Li  tau( 206) = (  0.8808582  0.4642444  0.4820111  )
       207           Li  tau( 207) = (  0.7858861  0.1566758  0.3916786  )
       208           Li  tau( 208) = (  0.8955479  0.0221536  0.3916786  )
       209           Li  tau( 209) = (  0.9852327  0.3211711  0.3916786  )
       210           Li  tau( 210) = (  0.8773642  0.3536691  0.4249548  )
       211           Li  tau( 211) = (  0.7699735  0.4752981  0.4237745  )
       212           Li  tau( 212) = (  0.6813387  0.1712429  0.4317026  )
       213           Li  tau( 213) = (  0.6666690  0.0000000  0.3648003  )
       214           Li  tau( 214) = (  0.6699052  1.0005725  0.4574692  )
       215           Cr  tau( 215) = (  0.8822777  0.1608594  0.4575312  )
       216           Cr  tau( 216) = (  0.7777800  0.3333332  0.3591908  )
       217           N   tau( 217) = (  0.9764412  0.1435257  0.4676164  )
       218           N   tau( 218) = (  0.8871032  0.1717065  0.4183953  )
       219           N   tau( 219) = (  0.6842085  0.3434273  0.3474270  )
       220           N   tau( 220) = (  0.7710469  0.1828847  0.3474270  )
       221           N   tau( 221) = (  0.8780741  0.4736876  0.3474270  )
       222           N   tau( 222) = (  0.7910110  0.0351740  0.4709848  )
       223           N   tau( 223) = (  0.8848138  0.3028546  0.4707212  )
       224           N   tau( 224) = (  0.7777800  0.3333332  0.3977842  )
       225           O   tau( 225) = (  0.6561211  0.9813672  0.4100397  )
       226           Li  tau( 226) = (  0.9672558  0.1504211  0.5199313  )
       227           Li  tau( 227) = (  0.8983707  0.3314454  0.5155110  )
       228           Li  tau( 228) = (  0.8099809  0.0345596  0.5297352  )
       229           Li  tau( 229) = (  0.6810319  0.3634696  0.6681860  )
       230           Li  tau( 230) = (  0.7588450  0.2018572  0.6726418  )
       231           Li  tau( 231) = (  0.8468676  0.4630671  0.6734966  )
       232           Li  tau( 232) = (  0.7819902  0.1539650  0.5779731  )
       233           Li  tau( 233) = (  0.8941648  0.0508778  0.5758560  )
       234           Li  tau( 234) = (  0.9759673  0.3319464  0.5806262  )
       235           Li  tau( 235) = (  0.8329924  0.3141249  0.6157250  )
       236           Li  tau( 236) = (  0.7728661  0.4906558  0.6129656  )
       237           Li  tau( 237) = (  0.6768401  0.2094854  0.6120997  )
       238           Li  tau( 238) = (  0.5621781  0.0273459  0.5863398  )
       239           Li  tau( 239) = (  0.6714376  1.0254514  0.6394741  )
       240           Cr  tau( 240) = (  0.8862338  0.2011830  0.6458011  )
       241           Cr  tau( 241) = (  0.7746703  0.3328230  0.5448032  )
       242           N   tau( 242) = (  0.9740690  0.1923907  0.6584153  )
       243           N   tau( 243) = (  0.8909694  0.1897396  0.6064769  )
       244           N   tau( 244) = (  0.6787168  0.3447250  0.5352938  )
       245           N   tau( 245) = (  0.7721893  0.1790008  0.5343858  )
       246           N   tau( 246) = (  0.8791098  0.4612957  0.5321159  )
       247           N   tau( 247) = (  0.7819577  0.0670637  0.6569139  )
       248           N   tau( 248) = (  0.9057109  0.3570075  0.6633871  )
       249           N   tau( 249) = (  0.7777046  0.3581959  0.5825927  )
       250           O   tau( 250) = (  0.6788330  0.0119465  0.5969343  )
       251           Li  tau( 251) = (  0.9764026  0.6512226  0.3321863  )
       252           Li  tau( 252) = (  0.8991830  0.8133797  0.3321863  )
       253           Li  tau( 253) = (  0.7910824  0.5353989  0.3321863  )
       254           Li  tau( 254) = (  0.6834556  0.8412862  0.4894920  )
       255           Li  tau( 255) = (  0.7556712  0.6690279  0.4846664  )
       256           Li  tau( 256) = (  0.8592309  0.9522633  0.4791942  )
       257           Li  tau( 257) = (  0.7858860  0.6566756  0.3916786  )
       258           Li  tau( 258) = (  0.8955503  0.5221537  0.3916786  )
       259           Li  tau( 259) = (  0.9852291  0.8211709  0.3916786  )
       260           Li  tau( 260) = (  0.8770594  0.8163324  0.4205589  )
       261           Li  tau( 261) = (  0.7630955  0.9584440  0.4230459  )
       262           Li  tau( 262) = (  0.6950401  0.6893689  0.4318222  )
       263           Li  tau( 263) = (  0.6666666  0.4999998  0.3648003  )
       264           Li  tau( 264) = (  0.6860413  0.5143190  0.4527854  )
       265           Cr  tau( 265) = (  0.8782999  0.6491293  0.4523779  )
       266           Cr  tau( 266) = (  0.7777776  0.8333330  0.3591908  )
       267           N   tau( 267) = (  0.9799630  0.6481758  0.4644739  )
       268           N   tau( 268) = (  0.8801600  0.6638088  0.4143448  )
       269           N   tau( 269) = (  0.6842084  0.8434271  0.3474270  )
       270           N   tau( 270) = (  0.7710484  0.6828855  0.3474270  )
       271           N   tau( 271) = (  0.8780764  0.9736874  0.3474270  )
       272           N   tau( 272) = (  0.7866367  0.4977617  0.4688034  )
       273           N   tau( 273) = (  0.8903012  0.7969733  0.4680881  )
       274           N   tau( 274) = (  0.7777776  0.8333330  0.3977842  )
       275           O   tau( 275) = (  0.6726855  0.5070865  0.4047490  )
       276           Li  tau( 276) = (  0.9800760  0.6600160  0.5117174  )
       277           Li  tau( 277) = (  0.8849759  0.8250741  0.5124483  )
       278           Li  tau( 278) = (  0.8126323  0.5436112  0.5143351  )
       279           Li  tau( 279) = (  0.6848566  0.8921958  0.6811657  )
       280           Li  tau( 280) = (  0.7483360  0.6536004  0.6823416  )
       281           Li  tau( 281) = (  0.8638661  0.9943067  0.6660556  )
       282           Li  tau( 282) = (  0.7828485  0.6179138  0.5740002  )
       283           Li  tau( 283) = (  0.9095010  0.4939810  0.5764783  )
       284           Li  tau( 284) = (  0.9799907  0.8123634  0.5775988  )
       285           Li  tau( 285) = (  0.8943058  0.8587443  0.6051304  )
       286           Li  tau( 286) = (  0.7585107  0.9904653  0.6130033  )
       287           Li  tau( 287) = (  0.7508383  0.7371022  0.6256330  )
       288           Li  tau( 288) = (  0.6635088  0.5103803  0.5525011  )
       289           Li  tau( 289) = (  0.6563060  0.5132298  0.6361810  )
       290           Cr  tau( 290) = (  0.8835320  0.6841114  0.6449862  )
       291           Cr  tau( 291) = (  0.7778293  0.8288822  0.5488780  )
       292           N   tau( 292) = (  0.9675014  0.6740132  0.6637968  )
       293           N   tau( 293) = (  0.8895912  0.6674519  0.6050064  )
       294           N   tau( 294) = (  0.6810826  0.8428896  0.5348110  )
       295           N   tau( 295) = (  0.7746630  0.6811252  0.5342087  )
       296           N   tau( 296) = (  0.8783252  0.9795725  0.5372183  )
       297           N   tau( 297) = (  0.7741883  0.5413640  0.6561875  )
       298           N   tau( 298) = (  0.8872369  0.8210221  0.6552596  )
       299           N   tau( 299) = (  0.7726659  0.8250336  0.5851505  )
       300           O   tau( 300) = (  0.6644204  0.4910172  0.5939513  )

     number of k points=     1  Gaussian smearing, width (Ry)=  0.0147
                       cart. coord. in units 2pi/alat
        k(    1) = (   0.0000000   0.0000000   0.0000000), wk =   2.0000000

                       cryst. coord.
        k(    1) = (   0.0000000   0.0000000   0.0000000), wk =   2.0000000

     Dense  grid:  5457965 G-vectors     FFT dimensions: ( 240, 160, 640)

     Smooth grid:  2970742 G-vectors     FFT dimensions: ( 200, 135, 540)

     Dynamical RAM for                 wfc:    1182.84 MB

     Dynamical RAM for     wfc (w. buffer):    1182.84 MB

     Dynamical RAM for           str. fact:      83.28 MB

     Dynamical RAM for           local pot:       0.00 MB

     Dynamical RAM for          nlocal pot:    3977.76 MB

     Dynamical RAM for                qrad:       7.46 MB

     Dynamical RAM for          rho,v,vnew:     203.09 MB

     Dynamical RAM for               rhoin:      67.70 MB

     Dynamical RAM for            rho*nmix:     333.13 MB

     Dynamical RAM for           G-vectors:      83.74 MB

     Dynamical RAM for          h,s,v(r/c):      63.83 MB

     Dynamical RAM for          <psi|beta>:      17.89 MB

     Dynamical RAM for                 psi:    2365.69 MB

     Dynamical RAM for                hpsi:    2365.69 MB

     Dynamical RAM for                spsi:    2365.69 MB

     Dynamical RAM for      wfcinit/wfcrot:    4336.08 MB

     Dynamical RAM for           addusdens:    7370.47 MB

     Dynamical RAM for          addusforce:   14335.60 MB

     Dynamical RAM for         addusstress:    4184.93 MB

     Estimated static dynamical RAM per process >       5.81 GB

     Estimated max dynamical RAM per process >      20.13 GB

     Estimated total dynamical RAM >      80.52 GB

     Check: negative core charge=   -0.000002

     Initial potential from superposition of free atoms

     starting charge    1292.2742, renormalised to    1392.0000

     negative rho (up, down):  2.558E-02 0.000E+00
     Starting wfcs are 1512 randomized atomic wfcs
     Checking if some PAW data can be deallocated... 

     total cpu time spent up to now is       34.8 secs

     per-process dynamical memory:  1708.6 Mb

     Self-consistent Calculation
[tb_dev] Currently allocated     1.26E+02 Mbytes, locked:    0 /  11
[tb_pin] Currently allocated     0.00E+00 Mbytes, locked:    0 /   0

     iteration #  1     ecut=    90.00 Ry     beta= 0.20
     Davidson diagonalization with overlap

---- Real-time Memory Report at c_bands before calling an iterative solver
         10171 MiB given to the printing process from OS
          1746 MiB allocation reported by mallinfo(arena+hblkhd)
        465837 MiB available memory on the node where the printing process lives
     GPU memory used/free/total (MiB): 16367 / 48601 / 64969
------------------
     ethr =  1.00E-02,  avg # of iterations =  3.0

     negative rho (up, down):  4.058E-02 0.000E+00

     total cpu time spent up to now is       38.6 secs

     total energy              =   -9071.79466556 Ry
     estimated scf accuracy    <     235.96908101 Ry
[tb_dev] Currently allocated     2.41E+01 Mbytes, locked:    0 /   6
[tb_pin] Currently allocated     0.00E+00 Mbytes, locked:    0 /   0

     iteration #  2     ecut=    90.00 Ry     beta= 0.20
     Davidson diagonalization with overlap

---- Real-time Memory Report at c_bands before calling an iterative solver
         10502 MiB given to the printing process from OS
          2013 MiB allocation reported by mallinfo(arena+hblkhd)
        464871 MiB available memory on the node where the printing process lives
     GPU memory used/free/total (MiB): 31249 / 33719 / 64969
------------------
     ethr =  1.00E-02,  avg # of iterations =  5.0

     negative rho (up, down):  5.666E-02 0.000E+00

     total cpu time spent up to now is       42.4 secs

     total energy              =   -9078.53174308 Ry
     estimated scf accuracy    <      31.98681427 Ry
[tb_dev] Currently allocated     2.41E+01 Mbytes, locked:    0 /   6
[tb_pin] Currently allocated     0.00E+00 Mbytes, locked:    0 /   0

     iteration #  3     ecut=    90.00 Ry     beta= 0.20
     Davidson diagonalization with overlap

---- Real-time Memory Report at c_bands before calling an iterative solver
         10526 MiB given to the printing process from OS
          2037 MiB allocation reported by mallinfo(arena+hblkhd)
        464753 MiB available memory on the node where the printing process lives
     GPU memory used/free/total (MiB): 31249 / 33719 / 64969
------------------
     ethr =  2.30E-03,  avg # of iterations =  7.0

     negative rho (up, down):  4.425E-02 0.000E+00

     total cpu time spent up to now is       47.8 secs

     total energy              =   -9090.87409596 Ry
     estimated scf accuracy    <     311.94628131 Ry
[tb_dev] Currently allocated     2.41E+01 Mbytes, locked:    0 /   6
[tb_pin] Currently allocated     0.00E+00 Mbytes, locked:    0 /   0

     iteration #  4     ecut=    90.00 Ry     beta= 0.20
     Davidson diagonalization with overlap

---- Real-time Memory Report at c_bands before calling an iterative solver
         10529 MiB given to the printing process from OS
         -2035 MiB allocation reported by mallinfo(arena+hblkhd)
        464512 MiB available memory on the node where the printing process lives
     GPU memory used/free/total (MiB): 31249 / 33719 / 64969
------------------
     ethr =  2.30E-03,  avg # of iterations =  2.0

     negative rho (up, down):  3.644E-02 0.000E+00

     total cpu time spent up to now is       51.2 secs

     total energy              =   -9091.23504577 Ry
     estimated scf accuracy    <      47.40560554 Ry
[tb_dev] Currently allocated     2.41E+01 Mbytes, locked:    0 /   6
[tb_pin] Currently allocated     0.00E+00 Mbytes, locked:    0 /   0

     iteration #  5     ecut=    90.00 Ry     beta= 0.20
     Davidson diagonalization with overlap

---- Real-time Memory Report at c_bands before calling an iterative solver
         10552 MiB given to the printing process from OS
         -2011 MiB allocation reported by mallinfo(arena+hblkhd)
        464418 MiB available memory on the node where the printing process lives
     GPU memory used/free/total (MiB): 31249 / 33719 / 64969
------------------
     ethr =  2.30E-03,  avg # of iterations =  2.0

     negative rho (up, down):  3.054E-02 0.000E+00

     total cpu time spent up to now is       54.6 secs

     total energy              =   -9099.69829750 Ry
     estimated scf accuracy    <       7.71366968 Ry
[tb_dev] Currently allocated     2.41E+01 Mbytes, locked:    0 /   6
[tb_pin] Currently allocated     0.00E+00 Mbytes, locked:    0 /   0

     iteration #  6     ecut=    90.00 Ry     beta= 0.20
     Davidson diagonalization with overlap

---- Real-time Memory Report at c_bands before calling an iterative solver
         10576 MiB given to the printing process from OS
         -1988 MiB allocation reported by mallinfo(arena+hblkhd)
        464305 MiB available memory on the node where the printing process lives
     GPU memory used/free/total (MiB): 31249 / 33719 / 64969
------------------
     ethr =  5.54E-04,  avg # of iterations = 11.0

     negative rho (up, down):  3.576E-02 0.000E+00

     total cpu time spent up to now is       59.2 secs

     total energy              =   -9092.24453041 Ry
     estimated scf accuracy    <      57.67917965 Ry
[tb_dev] Currently allocated     2.41E+01 Mbytes, locked:    0 /   6
[tb_pin] Currently allocated     0.00E+00 Mbytes, locked:    0 /   0

     iteration #  7     ecut=    90.00 Ry     beta= 0.20
     Davidson diagonalization with overlap

---- Real-time Memory Report at c_bands before calling an iterative solver
         10599 MiB given to the printing process from OS
         -1964 MiB allocation reported by mallinfo(arena+hblkhd)
        464211 MiB available memory on the node where the printing process lives
     GPU memory used/free/total (MiB): 31423 / 33545 / 64969
------------------
     ethr =  5.54E-04,  avg # of iterations =  9.0

     negative rho (up, down):  3.452E-02 0.000E+00

     total cpu time spent up to now is       63.8 secs

     total energy              =   -9096.45074567 Ry
     estimated scf accuracy    <       3.20659818 Ry
[tb_dev] Currently allocated     2.41E+01 Mbytes, locked:    0 /   6
[tb_pin] Currently allocated     0.00E+00 Mbytes, locked:    0 /   0

     iteration #  8     ecut=    90.00 Ry     beta= 0.20
     Davidson diagonalization with overlap

---- Real-time Memory Report at c_bands before calling an iterative solver
         10623 MiB given to the printing process from OS
         -1941 MiB allocation reported by mallinfo(arena+hblkhd)
        464093 MiB available memory on the node where the printing process lives
     GPU memory used/free/total (MiB): 31425 / 33543 / 64969
------------------
     ethr =  2.30E-04,  avg # of iterations =  2.0

     negative rho (up, down):  3.833E-02 0.000E+00

     total cpu time spent up to now is       67.3 secs

     total energy              =   -9094.67813897 Ry
     estimated scf accuracy    <       6.69773654 Ry
[tb_dev] Currently allocated     2.41E+01 Mbytes, locked:    0 /   6
[tb_pin] Currently allocated     0.00E+00 Mbytes, locked:    0 /   0

     iteration #  9     ecut=    90.00 Ry     beta= 0.20
     Davidson diagonalization with overlap

---- Real-time Memory Report at c_bands before calling an iterative solver
         10646 MiB given to the printing process from OS
         -1917 MiB allocation reported by mallinfo(arena+hblkhd)
        464047 MiB available memory on the node where the printing process lives
     GPU memory used/free/total (MiB): 31425 / 33543 / 64969
------------------
     ethr =  2.30E-04,  avg # of iterations = 10.0

     negative rho (up, down):  3.751E-02 0.000E+00

     total cpu time spent up to now is       71.6 secs

     total energy              =   -9095.90557323 Ry
     estimated scf accuracy    <       4.32272377 Ry
[tb_dev] Currently allocated     2.41E+01 Mbytes, locked:    0 /   6
[tb_pin] Currently allocated     0.00E+00 Mbytes, locked:    0 /   0

     iteration # 10     ecut=    90.00 Ry     beta= 0.20
     Davidson diagonalization with overlap

---- Real-time Memory Report at c_bands before calling an iterative solver
         10670 MiB given to the printing process from OS
         -1894 MiB allocation reported by mallinfo(arena+hblkhd)
        464048 MiB available memory on the node where the printing process lives
     GPU memory used/free/total (MiB): 31447 / 33521 / 64969
------------------
     ethr =  2.30E-04,  avg # of iterations =  2.0

     negative rho (up, down):  3.687E-02 0.000E+00

     total cpu time spent up to now is       75.1 secs

     total energy              =   -9095.77594171 Ry
     estimated scf accuracy    <       1.26413892 Ry
[tb_dev] Currently allocated     2.41E+01 Mbytes, locked:    0 /   6
[tb_pin] Currently allocated     0.00E+00 Mbytes, locked:    0 /   0

     iteration # 11     ecut=    90.00 Ry     beta= 0.20
     Davidson diagonalization with overlap

---- Real-time Memory Report at c_bands before calling an iterative solver
         10670 MiB given to the printing process from OS
         -1894 MiB allocation reported by mallinfo(arena+hblkhd)
        463858 MiB available memory on the node where the printing process lives
     GPU memory used/free/total (MiB): 31447 / 33521 / 64969
------------------
     ethr =  9.08E-05,  avg # of iterations =  2.0

     negative rho (up, down):  3.738E-02 0.000E+00

     total cpu time spent up to now is       78.7 secs

     total energy              =   -9095.88991445 Ry
     estimated scf accuracy    <       0.23131949 Ry
[tb_dev] Currently allocated     2.41E+01 Mbytes, locked:    0 /   6
[tb_pin] Currently allocated     0.00E+00 Mbytes, locked:    0 /   0

     iteration # 12     ecut=    90.00 Ry     beta= 0.20
     Davidson diagonalization with overlap

---- Real-time Memory Report at c_bands before calling an iterative solver
         10670 MiB given to the printing process from OS
         -1894 MiB allocation reported by mallinfo(arena+hblkhd)
        463858 MiB available memory on the node where the printing process lives
     GPU memory used/free/total (MiB): 31447 / 33521 / 64969
------------------
     ethr =  1.66E-05,  avg # of iterations = 18.0

     negative rho (up, down):  3.851E-02 0.000E+00

     total cpu time spent up to now is       83.7 secs

     total energy              =   -9095.85752010 Ry
     estimated scf accuracy    <       0.14847695 Ry
[tb_dev] Currently allocated     2.41E+01 Mbytes, locked:    0 /   6
[tb_pin] Currently allocated     0.00E+00 Mbytes, locked:    0 /   0

     iteration # 13     ecut=    90.00 Ry     beta= 0.20
     Davidson diagonalization with overlap

---- Real-time Memory Report at c_bands before calling an iterative solver
         10670 MiB given to the printing process from OS
         -1894 MiB allocation reported by mallinfo(arena+hblkhd)
        463857 MiB available memory on the node where the printing process lives
     GPU memory used/free/total (MiB): 31641 / 33327 / 64969
------------------
     ethr =  1.07E-05,  avg # of iterations = 17.0

     negative rho (up, down):  3.873E-02 0.000E+00

     total cpu time spent up to now is       88.7 secs

     total energy              =   -9095.88065931 Ry
     estimated scf accuracy    <       0.04857800 Ry
[tb_dev] Currently allocated     2.41E+01 Mbytes, locked:    0 /   6
[tb_pin] Currently allocated     0.00E+00 Mbytes, locked:    0 /   0

     iteration # 14     ecut=    90.00 Ry     beta= 0.20
     Davidson diagonalization with overlap

---- Real-time Memory Report at c_bands before calling an iterative solver
         10670 MiB given to the printing process from OS
         -1894 MiB allocation reported by mallinfo(arena+hblkhd)
        463857 MiB available memory on the node where the printing process lives
     GPU memory used/free/total (MiB): 31641 / 33327 / 64969
------------------
     ethr =  3.49E-06,  avg # of iterations =  2.0

     negative rho (up, down):  3.917E-02 0.000E+00

     total cpu time spent up to now is       92.3 secs

     total energy              =   -9095.88256516 Ry
     estimated scf accuracy    <       0.00739842 Ry
[tb_dev] Currently allocated     2.41E+01 Mbytes, locked:    0 /   6
[tb_pin] Currently allocated     0.00E+00 Mbytes, locked:    0 /   0

     iteration # 15     ecut=    90.00 Ry     beta= 0.20
     Davidson diagonalization with overlap

---- Real-time Memory Report at c_bands before calling an iterative solver
         10670 MiB given to the printing process from OS
         -1894 MiB allocation reported by mallinfo(arena+hblkhd)
        463856 MiB available memory on the node where the printing process lives
     GPU memory used/free/total (MiB): 31641 / 33327 / 64969
------------------
     c_bands:  2 eigenvalues not converged
     ethr =  5.31E-07,  avg # of iterations = 40.0

     negative rho (up, down):  3.949E-02 0.000E+00

     total cpu time spent up to now is       99.3 secs

     total energy              =   -9095.88305466 Ry
     estimated scf accuracy    <       0.00410294 Ry
[tb_dev] Currently allocated     2.41E+01 Mbytes, locked:    0 /   6
[tb_pin] Currently allocated     0.00E+00 Mbytes, locked:    0 /   0

     iteration # 16     ecut=    90.00 Ry     beta= 0.20
     Davidson diagonalization with overlap

---- Real-time Memory Report at c_bands before calling an iterative solver
         10670 MiB given to the printing process from OS
         -1894 MiB allocation reported by mallinfo(arena+hblkhd)
        463857 MiB available memory on the node where the printing process lives
     GPU memory used/free/total (MiB): 31665 / 33303 / 64969
------------------
     ethr =  2.95E-07,  avg # of iterations =  2.0

     negative rho (up, down):  3.971E-02 0.000E+00

     total cpu time spent up to now is      102.9 secs

     total energy              =   -9095.88316741 Ry
     estimated scf accuracy    <       0.00113612 Ry
[tb_dev] Currently allocated     2.41E+01 Mbytes, locked:    0 /   6
[tb_pin] Currently allocated     0.00E+00 Mbytes, locked:    0 /   0

     iteration # 17     ecut=    90.00 Ry     beta= 0.20
     Davidson diagonalization with overlap

---- Real-time Memory Report at c_bands before calling an iterative solver
         10670 MiB given to the printing process from OS
         -1894 MiB allocation reported by mallinfo(arena+hblkhd)
        463953 MiB available memory on the node where the printing process lives
     GPU memory used/free/total (MiB): 31665 / 33303 / 64969
------------------
     ethr =  8.16E-08,  avg # of iterations =  4.0

     negative rho (up, down):  3.987E-02 0.000E+00

     total cpu time spent up to now is      106.8 secs

     total energy              =   -9095.88331914 Ry
     estimated scf accuracy    <       0.00058871 Ry
[tb_dev] Currently allocated     2.41E+01 Mbytes, locked:    0 /   6
[tb_pin] Currently allocated     0.00E+00 Mbytes, locked:    0 /   0

     iteration # 18     ecut=    90.00 Ry     beta= 0.20
     Davidson diagonalization with overlap

---- Real-time Memory Report at c_bands before calling an iterative solver
         10670 MiB given to the printing process from OS
         -1894 MiB allocation reported by mallinfo(arena+hblkhd)
        463857 MiB available memory on the node where the printing process lives
     GPU memory used/free/total (MiB): 31665 / 33303 / 64969
------------------
     ethr =  4.23E-08,  avg # of iterations =  2.0

     negative rho (up, down):  3.996E-02 0.000E+00

     total cpu time spent up to now is      110.3 secs

     total energy              =   -9095.88332626 Ry
     estimated scf accuracy    <       0.00027830 Ry
[tb_dev] Currently allocated     2.41E+01 Mbytes, locked:    0 /   6
[tb_pin] Currently allocated     0.00E+00 Mbytes, locked:    0 /   0

     iteration # 19     ecut=    90.00 Ry     beta= 0.20
     Davidson diagonalization with overlap

---- Real-time Memory Report at c_bands before calling an iterative solver
         10670 MiB given to the printing process from OS
         -1894 MiB allocation reported by mallinfo(arena+hblkhd)
        463857 MiB available memory on the node where the printing process lives
     GPU memory used/free/total (MiB): 31665 / 33303 / 64969
------------------
     ethr =  2.00E-08,  avg # of iterations =  3.0

     negative rho (up, down):  4.002E-02 0.000E+00

     total cpu time spent up to now is      114.0 secs

     total energy              =   -9095.88334549 Ry
     estimated scf accuracy    <       0.00009627 Ry
[tb_dev] Currently allocated     2.41E+01 Mbytes, locked:    0 /   6
[tb_pin] Currently allocated     0.00E+00 Mbytes, locked:    0 /   0

     iteration # 20     ecut=    90.00 Ry     beta= 0.20
     Davidson diagonalization with overlap

---- Real-time Memory Report at c_bands before calling an iterative solver
         10670 MiB given to the printing process from OS
         -1894 MiB allocation reported by mallinfo(arena+hblkhd)
        463857 MiB available memory on the node where the printing process lives
     GPU memory used/free/total (MiB): 31665 / 33303 / 64969
------------------
     ethr =  6.92E-09,  avg # of iterations =  2.0

     negative rho (up, down):  4.006E-02 0.000E+00

     total cpu time spent up to now is      117.5 secs

     total energy              =   -9095.88335288 Ry
     estimated scf accuracy    <       0.00003613 Ry
[tb_dev] Currently allocated     2.41E+01 Mbytes, locked:    0 /   6
[tb_pin] Currently allocated     0.00E+00 Mbytes, locked:    0 /   0

     iteration # 21     ecut=    90.00 Ry     beta= 0.20
     Davidson diagonalization with overlap

---- Real-time Memory Report at c_bands before calling an iterative solver
         10670 MiB given to the printing process from OS
         -1894 MiB allocation reported by mallinfo(arena+hblkhd)
        463857 MiB available memory on the node where the printing process lives
     GPU memory used/free/total (MiB): 31665 / 33303 / 64969
------------------
     ethr =  2.60E-09,  avg # of iterations =  4.0

     negative rho (up, down):  4.009E-02 0.000E+00

     total cpu time spent up to now is      121.4 secs

     total energy              =   -9095.88335757 Ry
     estimated scf accuracy    <       0.00001679 Ry
[tb_dev] Currently allocated     2.41E+01 Mbytes, locked:    0 /   6
[tb_pin] Currently allocated     0.00E+00 Mbytes, locked:    0 /   0

     iteration # 22     ecut=    90.00 Ry     beta= 0.20
     Davidson diagonalization with overlap

---- Real-time Memory Report at c_bands before calling an iterative solver
         10670 MiB given to the printing process from OS
         -1894 MiB allocation reported by mallinfo(arena+hblkhd)
        463857 MiB available memory on the node where the printing process lives
     GPU memory used/free/total (MiB): 31665 / 33303 / 64969
------------------
     ethr =  1.21E-09,  avg # of iterations =  2.0

     negative rho (up, down):  4.012E-02 0.000E+00

     total cpu time spent up to now is      125.0 secs

     total energy              =   -9095.88335896 Ry
     estimated scf accuracy    <       0.00000681 Ry
[tb_dev] Currently allocated     2.41E+01 Mbytes, locked:    0 /   6
[tb_pin] Currently allocated     0.00E+00 Mbytes, locked:    0 /   0

     iteration # 23     ecut=    90.00 Ry     beta= 0.20
     Davidson diagonalization with overlap

---- Real-time Memory Report at c_bands before calling an iterative solver
         10670 MiB given to the printing process from OS
         -1894 MiB allocation reported by mallinfo(arena+hblkhd)
        463857 MiB available memory on the node where the printing process lives
     GPU memory used/free/total (MiB): 31665 / 33303 / 64969
------------------
     ethr =  4.90E-10,  avg # of iterations =  4.0

     negative rho (up, down):  4.014E-02 0.000E+00

     total cpu time spent up to now is      128.9 secs

     total energy              =   -9095.88336022 Ry
     estimated scf accuracy    <       0.00000168 Ry
[tb_dev] Currently allocated     2.41E+01 Mbytes, locked:    0 /   6
[tb_pin] Currently allocated     0.00E+00 Mbytes, locked:    0 /   0

     iteration # 24     ecut=    90.00 Ry     beta= 0.20
     Davidson diagonalization with overlap

---- Real-time Memory Report at c_bands before calling an iterative solver
         10670 MiB given to the printing process from OS
         -1894 MiB allocation reported by mallinfo(arena+hblkhd)
        463857 MiB available memory on the node where the printing process lives
     GPU memory used/free/total (MiB): 31665 / 33303 / 64969
------------------
     ethr =  1.21E-10,  avg # of iterations =  5.0

     negative rho (up, down):  4.015E-02 0.000E+00

     total cpu time spent up to now is      132.8 secs

     total energy              =   -9095.88336047 Ry
     estimated scf accuracy    <       0.00000080 Ry
[tb_dev] Currently allocated     2.41E+01 Mbytes, locked:    0 /   6
[tb_pin] Currently allocated     0.00E+00 Mbytes, locked:    0 /   0

     iteration # 25     ecut=    90.00 Ry     beta= 0.20
     Davidson diagonalization with overlap

---- Real-time Memory Report at c_bands before calling an iterative solver
         10670 MiB given to the printing process from OS
         -1894 MiB allocation reported by mallinfo(arena+hblkhd)
        463857 MiB available memory on the node where the printing process lives
     GPU memory used/free/total (MiB): 31665 / 33303 / 64969
------------------
     ethr =  5.73E-11,  avg # of iterations =  2.0

     negative rho (up, down):  4.016E-02 0.000E+00

     total cpu time spent up to now is      136.4 secs

     total energy              =   -9095.88336056 Ry
     estimated scf accuracy    <       0.00000033 Ry
[tb_dev] Currently allocated     2.41E+01 Mbytes, locked:    0 /   6
[tb_pin] Currently allocated     0.00E+00 Mbytes, locked:    0 /   0

     iteration # 26     ecut=    90.00 Ry     beta= 0.20
     Davidson diagonalization with overlap

---- Real-time Memory Report at c_bands before calling an iterative solver
         10670 MiB given to the printing process from OS
         -1894 MiB allocation reported by mallinfo(arena+hblkhd)
        463857 MiB available memory on the node where the printing process lives
     GPU memory used/free/total (MiB): 31665 / 33303 / 64969
------------------
     ethr =  2.38E-11,  avg # of iterations =  5.0

     negative rho (up, down):  4.016E-02 0.000E+00

     total cpu time spent up to now is      140.8 secs

     total energy              =   -9095.88336065 Ry
     estimated scf accuracy    <       0.00000020 Ry
[tb_dev] Currently allocated     2.41E+01 Mbytes, locked:    0 /   6
[tb_pin] Currently allocated     0.00E+00 Mbytes, locked:    0 /   0

     iteration # 27     ecut=    90.00 Ry     beta= 0.20
     Davidson diagonalization with overlap

---- Real-time Memory Report at c_bands before calling an iterative solver
         10670 MiB given to the printing process from OS
         -1894 MiB allocation reported by mallinfo(arena+hblkhd)
        463857 MiB available memory on the node where the printing process lives
     GPU memory used/free/total (MiB): 31665 / 33303 / 64969
------------------
     ethr =  1.41E-11,  avg # of iterations =  4.0

     negative rho (up, down):  4.019E-02 0.000E+00

     total cpu time spent up to now is      144.3 secs

     End of self-consistent calculation

          k = 0.0000 0.0000 0.0000 (371318 PWs)   bands (ev):

   -72.2948 -72.1782 -72.0532 -72.0311 -72.0234 -71.9650 -71.9642 -71.9408
   -71.9149 -71.9013 -71.8664 -71.8411 -71.7695 -71.7641 -71.7492 -71.7414
   -71.7060 -71.6896 -71.6861 -71.6657 -71.6446 -71.6261 -71.5046 -71.5013
   -46.0542 -45.5631 -45.5127 -45.3129 -45.1324 -45.0896 -45.0504 -45.0425
   -44.9997 -44.9393 -44.8166 -44.8047 -44.8026 -44.8002 -44.7970 -44.7767
   -44.7637 -44.7490 -44.7337 -44.7260 -44.7233 -44.7227 -44.7165 -44.7108
   -44.7056 -44.6962 -44.6956 -44.6877 -44.6794 -44.6777 -44.6747 -44.6731
   -44.6601 -44.6599 -44.6537 -44.6513 -44.6442 -44.6380 -44.6313 -44.6152
   -44.6086 -44.5624 -44.5465 -44.4842 -44.4827 -44.4734 -44.4667 -44.4666
   -44.4556 -44.4395 -44.4327 -44.4277 -44.4208 -44.4179 -44.4106 -44.4017
   -44.3814 -44.3778 -44.3727 -44.3482 -44.3439 -44.3323 -44.3310 -44.3127
   -44.3068 -44.3033 -44.2946 -44.2938 -44.2788 -44.2741 -44.2727 -44.2678
   -44.2616 -44.2572 -44.2547 -44.2504 -44.2301 -44.2133 -44.2103 -44.2075
   -44.2005 -44.1870 -44.1857 -44.1749 -44.1594 -44.1527 -44.1513 -44.1478
   -44.1463 -44.1376 -44.1334 -44.1313 -44.1291 -44.1242 -44.1172 -44.1159
   -44.0991 -44.0937 -44.0932 -44.0924 -44.0697 -44.0688 -44.0659 -44.0616
   -44.0548 -44.0537 -44.0520 -44.0469 -44.0442 -44.0367 -44.0209 -44.0127
   -44.0070 -43.9929 -43.9872 -43.9788 -43.9684 -43.9602 -43.9513 -43.9422
   -43.9347 -43.9247 -43.9151 -43.9142 -43.9140 -43.9133 -43.8993 -43.8992
   -43.8787 -43.8748 -43.8481 -43.8349 -43.8281 -43.8198 -43.8166 -43.8134
   -43.8052 -43.7937 -43.7760 -43.7756 -43.7491 -43.7427 -43.7345 -43.7333
   -43.7314 -43.7162 -43.7090 -43.7034 -43.6939 -43.6933 -43.6735 -43.6652
   -43.6631 -43.6614 -43.6477 -43.6309 -43.6151 -43.5839 -43.5783 -43.5530
[...]
     atom  143 type  1   force =     0.00000111    0.00000211   -0.00001547
     atom  144 type  1   force =    -0.00000026   -0.00001218    0.00001336
     atom  145 type  1   force =    -0.00000936   -0.00000852   -0.00001081
     atom  146 type  1   force =     0.00000813    0.00000792    0.00000138
     atom  147 type  1   force =    -0.00000671   -0.00001214   -0.00000942
     atom  148 type  1   force =    -0.00002206    0.00000574   -0.00001311
     atom  149 type  1   force =    -0.00000583   -0.00000716    0.00000049
     atom  150 type  4   force =     0.00002214    0.00000259    0.00000154
     atom  151 type  2   force =    -0.00000333   -0.00000127   -0.00000184
     atom  152 type  2   force =     0.00000541    0.00000015   -0.00000168
     atom  153 type  2   force =     0.00000118    0.00000192   -0.00000327
     atom  154 type  2   force =     0.00000402    0.00000969    0.00000459
     atom  155 type  2   force =     0.00000621    0.00000014   -0.00000163
     atom  156 type  2   force =     0.00001388   -0.00000355    0.00000255
     atom  157 type  2   force =     0.00000149   -0.00000363    0.00000252
     atom  158 type  2   force =    -0.00000453   -0.00000277   -0.00000245
     atom  159 type  2   force =    -0.00000364    0.00000080   -0.00000555
     atom  160 type  2   force =     0.00000349    0.00000185   -0.00000255
     atom  161 type  2   force =     0.00000046   -0.00000201   -0.00000210
     atom  162 type  2   force =     0.00001762    0.00000240   -0.00000740
     atom  163 type  2   force =     0.00000084   -0.00000023   -0.00000440
     atom  164 type  2   force =     0.00000434    0.00000384    0.00000362
     atom  165 type  3   force =     0.00002344   -0.00001423   -0.00004294
     atom  166 type  3   force =     0.00000663   -0.00000869    0.00000067
     atom  167 type  1   force =     0.00000415   -0.00000074   -0.00000273
     atom  168 type  1   force =    -0.00000599   -0.00000424   -0.00000664
     atom  169 type  1   force =    -0.00001387   -0.00000140   -0.00002281
     atom  170 type  1   force =     0.00000836   -0.00001232   -0.00001081
     atom  171 type  1   force =     0.00000905    0.00001138   -0.00001534
     atom  172 type  1   force =    -0.00000612   -0.00001203   -0.00000896
     atom  173 type  1   force =    -0.00000641    0.00002117   -0.00000666
     atom  174 type  1   force =     0.00001780   -0.00000096    0.00000050
     atom  175 type  4   force =     0.00002871    0.00000720   -0.00001981
     atom  176 type  2   force =     0.00001029   -0.00001530    0.00001186
     atom  177 type  2   force =     0.00000345    0.00000412    0.00000491
     atom  178 type  2   force =     0.00000103    0.00000466    0.00001151
     atom  179 type  2   force =     0.00000547   -0.00000549    0.00000386
     atom  180 type  2   force =    -0.00000607    0.00000607   -0.00000136
     atom  181 type  2   force =     0.00001460    0.00000014   -0.00000620
     atom  182 type  2   force =     0.00000154   -0.00000275    0.00000041
     atom  183 type  2   force =     0.00001110   -0.00000590   -0.00000160
     atom  184 type  2   force =     0.00001113    0.00000655    0.00000415
     atom  185 type  2   force =    -0.00000128    0.00000991    0.00000940
     atom  186 type  2   force =    -0.00000043    0.00000619   -0.00000147
     atom  187 type  2   force =     0.00000392   -0.00000007    0.00001121
     atom  188 type  2   force =     0.00000172   -0.00001016    0.00000515
     atom  189 type  2   force =     0.00000435    0.00000284   -0.00000351
     atom  190 type  3   force =    -0.00004142   -0.00001548   -0.00000289
     atom  191 type  3   force =    -0.00002174   -0.00002328   -0.00000193
     atom  192 type  1   force =     0.00002043   -0.00001761   -0.00000126
     atom  193 type  1   force =    -0.00001167   -0.00000440   -0.00002012
     atom  194 type  1   force =    -0.00002026    0.00000851    0.00000943
     atom  195 type  1   force =     0.00000392   -0.00001921    0.00000181
     atom  196 type  1   force =     0.00002014    0.00001347    0.00000286
     atom  197 type  1   force =    -0.00001030   -0.00001573   -0.00001394
     atom  198 type  1   force =    -0.00002268    0.00000057   -0.00000902
     atom  199 type  1   force =    -0.00000740    0.00000163    0.00001850
     atom  200 type  4   force =    -0.00000223   -0.00001620   -0.00001867
     atom  201 type  2   force =    -0.00000275   -0.00000232   -0.00000389
     atom  202 type  2   force =     0.00000311   -0.00000120   -0.00000366
     atom  203 type  2   force =    -0.00000262    0.00000001   -0.00000234
     atom  204 type  2   force =     0.00000303    0.00000435    0.00000895
     atom  205 type  2   force =     0.00000408    0.00000423   -0.00000149
     atom  206 type  2   force =     0.00000397   -0.00001797    0.00000803
     atom  207 type  2   force =    -0.00000146   -0.00000401   -0.00000351
     atom  208 type  2   force =     0.00000339   -0.00000245    0.00000425
     atom  209 type  2   force =     0.00000685   -0.00000825   -0.00000572
     atom  210 type  2   force =    -0.00000463    0.00000535    0.00000018
     atom  211 type  2   force =    -0.00000928   -0.00001279   -0.00001804
     atom  212 type  2   force =     0.00000578    0.00000081   -0.00000874
     atom  213 type  2   force =     0.00000334   -0.00000251   -0.00000388
     atom  214 type  2   force =     0.00000074   -0.00001073    0.00000759
     atom  215 type  3   force =    -0.00001704    0.00002059   -0.00004749
     atom  216 type  3   force =     0.00001037   -0.00001189   -0.00001533
     atom  217 type  1   force =     0.00000804   -0.00000717   -0.00001507
     atom  218 type  1   force =     0.00000711   -0.00000887   -0.00001030
     atom  219 type  1   force =    -0.00000596    0.00000014   -0.00001421
     atom  220 type  1   force =     0.00000378   -0.00000199   -0.00000782
     atom  221 type  1   force =     0.00000315    0.00000552   -0.00001673
     atom  222 type  1   force =    -0.00000937   -0.00000064   -0.00000345
     atom  223 type  1   force =    -0.00001353    0.00000085    0.00000256
     atom  224 type  1   force =    -0.00000116   -0.00000368   -0.00001370
     atom  225 type  4   force =    -0.00000395   -0.00000603   -0.00001339
     atom  226 type  2   force =    -0.00000534   -0.00000062    0.00001215
     atom  227 type  2   force =     0.00000527   -0.00000515    0.00000252
     atom  228 type  2   force =    -0.00000721   -0.00000067    0.00001504
     atom  229 type  2   force =     0.00001114    0.00001484   -0.00000566
     atom  230 type  2   force =     0.00001476    0.00000004   -0.00001268
     atom  231 type  2   force =    -0.00000482    0.00000510   -0.00000895
     atom  232 type  2   force =    -0.00000768   -0.00001839    0.00001585
     atom  233 type  2   force =     0.00000296   -0.00000531    0.00001104
     atom  234 type  2   force =    -0.00000751    0.00001033    0.00000457
     atom  235 type  2   force =     0.00000421   -0.00000269    0.00000282
     atom  236 type  2   force =    -0.00000642   -0.00000159    0.00000313
     atom  237 type  2   force =     0.00001228   -0.00000091   -0.00000408
     atom  238 type  2   force =     0.00000955    0.00000119    0.00000235
     atom  239 type  2   force =     0.00000471    0.00000271   -0.00001206
     atom  240 type  3   force =     0.00004268    0.00000041    0.00002662
     atom  241 type  3   force =    -0.00002272   -0.00000492    0.00002419
     atom  242 type  1   force =    -0.00003218    0.00000740   -0.00001219
     atom  243 type  1   force =     0.00000413   -0.00000270    0.00003246
     atom  244 type  1   force =    -0.00004900    0.00000545    0.00000576
     atom  245 type  1   force =     0.00002100   -0.00005175    0.00000141
     atom  246 type  1   force =     0.00003417    0.00003251    0.00000305
     atom  247 type  1   force =     0.00002877    0.00001944   -0.00000062
     atom  248 type  1   force =     0.00003094   -0.00001832   -0.00001088
     atom  249 type  1   force =    -0.00000180    0.00000398    0.00004134
     atom  250 type  4   force =     0.00004562    0.00001997    0.00000885
     atom  251 type  2   force =    -0.00000431   -0.00000294   -0.00000216
     atom  252 type  2   force =     0.00000235   -0.00000253   -0.00000179
     atom  253 type  2   force =    -0.00000012    0.00000264   -0.00000008
     atom  254 type  2   force =     0.00000474    0.00000687   -0.00000183
     atom  255 type  2   force =    -0.00001296   -0.00000170    0.00000978
     atom  256 type  2   force =    -0.00000307    0.00000273    0.00000843
     atom  257 type  2   force =    -0.00001383   -0.00000157   -0.00000576
     atom  258 type  2   force =     0.00000621   -0.00000852   -0.00000544
     atom  259 type  2   force =     0.00000352    0.00001091    0.00000158
     atom  260 type  2   force =    -0.00000182    0.00001966   -0.00001101
     atom  261 type  2   force =     0.00000282    0.00000020   -0.00000526
     atom  262 type  2   force =     0.00000772   -0.00000258   -0.00000375
     atom  263 type  2   force =     0.00000211    0.00000120   -0.00000564
     atom  264 type  2   force =    -0.00001169    0.00000429    0.00000194
     atom  265 type  3   force =     0.00002486    0.00002637   -0.00002401
     atom  266 type  3   force =    -0.00002728    0.00000421   -0.00000969
     atom  267 type  1   force =     0.00004052    0.00000630   -0.00000313
     atom  268 type  1   force =     0.00000645    0.00001322   -0.00003836
     atom  269 type  1   force =    -0.00000795    0.00000146   -0.00000599
     atom  270 type  1   force =     0.00000441   -0.00000795   -0.00001630
     atom  271 type  1   force =     0.00000183    0.00001275   -0.00001531
     atom  272 type  1   force =    -0.00001835   -0.00003902    0.00002231
     atom  273 type  1   force =    -0.00001784    0.00005086    0.00001664
     atom  274 type  1   force =    -0.00000946    0.00000681   -0.00000778
     atom  275 type  4   force =    -0.00000325   -0.00000195   -0.00001678
     atom  276 type  2   force =    -0.00000578   -0.00000223    0.00001279
     atom  277 type  2   force =     0.00001007   -0.00000404    0.00001229
     atom  278 type  2   force =    -0.00000579   -0.00000115    0.00000679
     atom  279 type  2   force =    -0.00000211    0.00000275   -0.00000698
     atom  280 type  2   force =    -0.00000185    0.00000013   -0.00000637
     atom  281 type  2   force =    -0.00000158    0.00001313   -0.00001356
     atom  282 type  2   force =    -0.00000515   -0.00001004    0.00000316
     atom  283 type  2   force =     0.00001553   -0.00001226    0.00002313
     atom  284 type  2   force =    -0.00000491   -0.00000182    0.00000006
     atom  285 type  2   force =    -0.00000498    0.00002170    0.00001750
     atom  286 type  2   force =    -0.00001599    0.00001225   -0.00001165
     atom  287 type  2   force =    -0.00000088    0.00000171    0.00000582
     atom  288 type  2   force =    -0.00000391   -0.00000301    0.00000947
     atom  289 type  2   force =     0.00000495    0.00000037   -0.00000306
     atom  290 type  3   force =     0.00000466    0.00005106   -0.00000227
     atom  291 type  3   force =     0.00000300   -0.00003067    0.00000340
     atom  292 type  1   force =     0.00000717    0.00000784   -0.00002179
     atom  293 type  1   force =     0.00000595    0.00000634    0.00000351
     atom  294 type  1   force =    -0.00002035    0.00000769    0.00000722
     atom  295 type  1   force =     0.00000665   -0.00001219    0.00000944
     atom  296 type  1   force =     0.00001109    0.00002128    0.00000222
     atom  297 type  1   force =     0.00000058    0.00000593   -0.00000500
     atom  298 type  1   force =     0.00002172   -0.00000311   -0.00001485
     atom  299 type  1   force =    -0.00001085    0.00000213    0.00000942
     atom  300 type  4   force =     0.00000030   -0.00001384   -0.00001963

     Total force =     1.029437     Total SCF correction =     0.000365


     Computing stress (Cartesian axis) and pressure


     negative rho (up, down):  4.019E-02 0.000E+00
          total   stress  (Ry/bohr**3)                   (kbar)     P=        3.87
   0.00004252  -0.00001039   0.00002252            6.25       -1.53        3.31
  -0.00001039   0.00005479  -0.00002496           -1.53        8.06       -3.67
   0.00002252  -0.00002496  -0.00001835            3.31       -3.67       -2.70

     kinetic stress (kbar)   5331.44     -3.38      3.19
                               -3.38   5334.67     -2.36
                                3.19     -2.36   5327.12

     local   stress (kbar)-645837.15    -22.27    -43.91
                              -22.27-645457.93    -58.34
                              -43.91    -58.34 639226.21

     nonloc. stress (kbar)    958.17     -0.13      0.33
                               -0.13    958.00     -0.19
                                0.33     -0.19    954.59

     hartree stress (kbar) 323529.26     14.08     16.33
                               14.08 323385.30     22.53
                               16.33     22.53-317572.05

     exc-cor stress (kbar)  -1263.56     -0.06      0.06
                               -0.06  -1264.12      0.11
                                0.06      0.11  -1265.54

     corecor stress (kbar)   -292.86      0.03     -0.02
                                0.03   -292.84      0.00
                               -0.02      0.00   -292.77

     ewald   stress (kbar) 317580.95     10.20     27.33
                               10.20 317344.98     34.58
                               27.33     34.58-326380.26

     hubbard stress (kbar)      0.00      0.00      0.00
                                0.00      0.00      0.00
                                0.00      0.00      0.00

     DFT-D   stress (kbar)      0.00      0.00      0.00
                                0.00      0.00      0.00
                                0.00      0.00      0.00

     XDM     stress (kbar)      0.00      0.00      0.00
                                0.00      0.00      0.00
                                0.00      0.00      0.00

     dft-nl  stress (kbar)      0.00      0.00      0.00
                                0.00      0.00      0.00
                                0.00      0.00      0.00

     TS-vdW  stress (kbar)      0.00      0.00      0.00
                                0.00      0.00      0.00
                                0.00      0.00      0.00

     MDB     stress (kbar)      0.00      0.00      0.00
                                0.00      0.00      0.00
                                0.00      0.00      0.00

     3D-RISM stress (kbar)      0.00      0.00      0.00
                                0.00      0.00      0.00
                                0.00      0.00      0.00


     Writing all to output data dir ./tmp/pwscf.save/
 
     init_run     :     29.40s CPU     34.16s WALL (       1 calls)
     electrons    :    103.60s CPU    109.81s WALL (       1 calls)
     forces       :      3.11s CPU      3.32s WALL (       1 calls)
     stress       :     80.97s CPU     83.47s WALL (       1 calls)

     Called by init_run:
     wfcinit      :      3.51s CPU      5.39s WALL (       1 calls)
                                        5.39s GPU  (       1 calls)
     wfcinit:atom :      0.01s CPU      0.01s WALL (       1 calls)
                                        0.01s GPU  (       1 calls)
     wfcinit:wfcr :      1.27s CPU      2.40s WALL (       1 calls)
                                        2.40s GPU  (       1 calls)
     potinit      :     16.37s CPU     16.65s WALL (       1 calls)
     hinit0       :      7.20s CPU      7.43s WALL (       1 calls)

     Called by electrons:
     c_bands      :     65.03s CPU     66.60s WALL (      27 calls)
     sum_band     :     14.71s CPU     15.12s WALL (      27 calls)
     v_of_rho     :      3.02s CPU      3.16s WALL (      28 calls)
     v_h          :      1.67s CPU      1.75s WALL (      28 calls)
     v_xc         :      1.47s CPU      1.54s WALL (      30 calls)
     newd         :      2.26s CPU      4.29s WALL (      28 calls)
                                        4.29s GPU  (      28 calls)
     PAW_pot      :      3.09s CPU      3.10s WALL (      28 calls)
     mix_rho      :      7.34s CPU      7.57s WALL (      27 calls)

     Called by c_bands:
     init_us_2    :      0.43s CPU      0.59s WALL (      55 calls)
     init_us_2:gp :      0.43s CPU      0.59s WALL (      55 calls)
     regterg      :     56.29s CPU     57.68s WALL (      28 calls)

     Called by sum_band:
     sum_band:wei :      0.01s CPU      0.01s WALL (      27 calls)
                                        0.01s GPU  (      27 calls)
     sum_band:loo :     11.55s CPU     11.89s WALL (      27 calls)
                                       11.89s GPU  (      27 calls)
     sum_band:buf :      1.76s CPU      1.76s WALL (      27 calls)
                                        1.76s GPU  (      27 calls)
     sum_band:ini :      0.21s CPU      0.42s WALL (      27 calls)
                                        0.42s GPU  (      27 calls)
     sum_band:cal :      1.91s CPU      1.96s WALL (      27 calls)
                                        1.96s GPU  (      27 calls)
     sum_band:bec :      0.19s CPU      0.19s WALL (      27 calls)
                                        0.19s GPU  (      27 calls)
     addusdens    :      1.93s CPU      1.97s WALL (      27 calls)
                                        1.97s GPU  (      27 calls)
     addusd:skk   :      0.41s CPU      0.41s WALL (     108 calls)
                                        0.41s GPU  (     108 calls)

     Called by *egterg:
     rdiaghg      :      5.40s CPU      5.47s WALL (     199 calls)
                                        5.47s GPU  (     199 calls)
     regterg:over :      3.41s CPU      3.52s WALL (     171 calls)
     regterg:upda :      1.87s CPU      1.90s WALL (     171 calls)
     regterg:last :      3.80s CPU      3.83s WALL (      60 calls)
     h_psi        :     36.20s CPU     38.32s WALL (     200 calls)
                                       38.32s GPU  (     200 calls)
     s_psi        :      0.94s CPU      4.50s WALL (     200 calls)
                                        4.37s GPU  (     200 calls)
     g_psi        :      0.00s CPU      0.18s WALL (     171 calls)
                                        0.18s GPU  (     171 calls)

     Called by h_psi:
     h_psi:calbec :      5.24s CPU      5.48s WALL (     200 calls)
                                        5.48s GPU  (     200 calls)
     vloc_psi     :     26.91s CPU     28.20s WALL (     200 calls)
                                       28.20s GPU  (     200 calls)
     add_vuspsi   :      0.41s CPU      4.45s WALL (     200 calls)
                                        4.44s GPU  (     200 calls)

     General routines
     calbec       :      7.53s CPU      7.96s WALL (     232 calls)
     fft          :      5.47s CPU      7.22s WALL (     326 calls)
                                        0.73s GPU  (     298 calls)
     ffts         :      2.74s CPU      3.27s WALL (      55 calls)
                                        0.04s GPU  (      27 calls)
     fftw         :     16.16s CPU     27.49s WALL (   15210 calls)
                                       27.34s GPU  (   15210 calls)
     interpolate  :      8.73s CPU     10.87s WALL (      28 calls)
 
     Parallel routines

     PAW routines
     PAW_pot      :      3.09s CPU      3.10s WALL (      28 calls)
 
     PWSCF        :   3m39.44s CPU   3m58.29s WALL

 
   This run was terminated on:  13:55:50  30Dec2023            

=------------------------------------------------------------------------------=
   JOB DONE.
=------------------------------------------------------------------------------=
