
     Program PWSCF v.7.2 starts on 30Dec2023 at 14:21: 2 

     This program is part of the open-source Quantum ESPRESSO suite
     for quantum simulation of materials; please cite
         "P. Giannozzi et al., J. Phys.:Condens. Matter 21 395502 (2009);
         "P. Giannozzi et al., J. Phys.:Condens. Matter 29 465901 (2017);
         "P. Giannozzi et al., J. Chem. Phys. 152 154105 (2020);
          URL http://www.quantum-espresso.org", 
     in publications or presentations arising from this work. More details at
     http://www.quantum-espresso.org/quote

     Parallel version (MPI & OpenMP), running on       4 processor cores
     Number of MPI processes:                 4
     Threads/MPI process:                     1

     MPI processes distributed on     1 nodes
     504163 MiB available memory on the printing compute node when the environment starts
 
     Reading input from input_0014.inp

     Current dimensions of program PWSCF are:
     Max number of different atomic species (ntypx) = 10
     Max number of k-points (npk) =  40000
     Max angular momentum in pseudopotentials (lmaxx) =  4
     file O.pbe-n-kjpaw_psl.0.1.UPF: wavefunction(s)  2P renormalized

     gamma-point specific algorithms are used
 
     R & G space division:  proc/nbgrp/npool/nimage =       4
     Subspace diagonalization in iterative solution of the eigenvalue problem:
     a serial algorithm will be used

 
     Parallelization info
     --------------------
     sticks:   dense  smooth     PW     G-vecs:    dense   smooth      PW
     Min        6485    4324   1079              2728975  1485363  185656
     Max        6486    4326   1080              2728990  1485382  185664
     Sum       25943   17301   4319             10915929  5941483  742635
 
     Using Slab Decomposition
 


     bravais-lattice index     =            0
     lattice parameter (alat)  =      32.3352  a.u.
     unit-cell volume          =   51510.8153 (a.u.)^3
     number of atoms/cell      =          300
     number of atomic types    =            4
     number of electrons       =      1392.00
     number of Kohn-Sham states=          835
     kinetic-energy cutoff     =      90.0000  Ry
     charge density cutoff     =     540.0000  Ry
     scf convergence threshold =      1.0E-07
     mixing beta               =       0.2000
     number of iterations used =            8  plain     mixing
     Exchange-correlation= SLA  PW   PBX  PBC
                           (   1   4   3   4   0   0   0)

     GPU acceleration is ACTIVE.
     GPU-aware MPI enabled


     GPU used by master process:

        Device Number: 0
        Device name: NVIDIA PG506-243
        Compute capability : 80
        Ratio of single to double precision performance  : 2
        Memory Clock Rate (KHz): 1593000
        Memory Bus Width (bits): 4096
        Peak Memory Bandwidth (GB/s): ******

     celldm(1)=  32.335181  celldm(2)=   0.000000  celldm(3)=   0.000000
     celldm(4)=   0.000000  celldm(5)=   0.000000  celldm(6)=   0.000000

     crystal axes: (cart. coord. in units of alat)
               a(1) = (   1.000000   0.000000   0.000000 )  
               a(2) = (  -0.333333   0.577350   0.000000 )  
               a(3) = (   0.000000  -0.000000   2.638962 )  

     reciprocal axes: (cart. coord. in units 2 pi/alat)
               b(1) = (  1.000000  0.577350  0.000000 )  
               b(2) = ( -0.000000  1.732051  0.000000 )  
               b(3) = (  0.000000 -0.000000  0.378937 )  


     PseudoPot. # 1 for N  read from file:
     /leonardo_scratch/large/userexternal/uraucci0/Li_Cr/PPS/N.pbe-n-radius_5.UPF
     MD5 check sum: 16739722b17309cd8fe442a2ace49922
     Pseudo is Ultrasoft + core correction, Zval =  5.0
     Generated using "atomic" code by A. Dal Corso  v.5.1
     Using radial grid of 1085 points,  4 beta functions with: 
                l(1) =   0
                l(2) =   0
                l(3) =   1
                l(4) =   1
     Q(r) pseudized with 0 coefficients 


     PseudoPot. # 2 for Li read from file:
     /leonardo_scratch/large/userexternal/uraucci0/Li_Cr/PPS/li_pbe_v1.4.uspp.F.UPF
     MD5 check sum: e912e257baa3777c20ea3d68f190483c
     Pseudo is Ultrasoft, Zval =  3.0
     Generated by new atomic code, or converted to UPF format
     Using radial grid of  751 points,  5 beta functions with: 
                l(1) =   0
                l(2) =   0
                l(3) =   0
                l(4) =   1
                l(5) =   1
     Q(r) pseudized with 10 coefficients,  rinner =    1.150   1.150   1.150


     PseudoPot. # 3 for Cr read from file:
     /leonardo_scratch/large/userexternal/uraucci0/Li_Cr/PPS/cr_pbe_v1.5.uspp.F.UPF
     MD5 check sum: 0d52af634a40206e4dee301ad30da4bf
     Pseudo is Ultrasoft + core correction, Zval = 14.0
     Generated by new atomic code, or converted to UPF format
     Using radial grid of  857 points,  6 beta functions with: 
                l(1) =   0
                l(2) =   0
                l(3) =   1
                l(4) =   1
                l(5) =   2
                l(6) =   2
     Q(r) pseudized with  8 coefficients,  rinner =    0.950   0.950   0.950
                                                       0.950   0.950

     PseudoPot. # 4 for O  read from file:
     /leonardo_scratch/large/userexternal/uraucci0/Li_Cr/PPS/O.pbe-n-kjpaw_psl.0.1.UPF
     MD5 check sum: 0234752ac141de4415c5fc33072bef88
     Pseudo is Projector augmented-wave + core cor, Zval =  6.0
     Generated using "atomic" code by A. Dal Corso  v.5.0.99 svn rev. 10869
     Shape of augmentation charge: BESSEL
     Using radial grid of 1095 points,  4 beta functions with: 
                l(1) =   0
                l(2) =   0
                l(3) =   1
                l(4) =   1
     Q(r) pseudized with 0 coefficients 


     atomic species   valence    mass     pseudopotential
        N              5.00    14.00674     N ( 1.00)
        Li             3.00     6.94100     Li( 1.00)
        Cr            14.00    51.99610     Cr( 1.00)
        O              6.00    15.99940     O ( 1.00)

     No symmetry found


                                    s                        frac. trans.

      isym =  1     identity                                     

 cryst.   s( 1) = (     1          0          0      )
                  (     0          1          0      )
                  (     0          0          1      )

 cart.    s( 1) = (  1.0000000  0.0000000  0.0000000 )
                  (  0.0000000  1.0000000  0.0000000 )
                  (  0.0000000  0.0000000  1.0000000 )


   Cartesian axes

     site n.     atom                  positions (alat units)
         1           Li  tau(   1) = (   0.2593273   0.0873080   0.8766270  )
         2           Li  tau(   2) = (   0.1280588   0.1809300   0.8766270  )
         3           Li  tau(   3) = (   0.1126144   0.0204373   0.8766270  )
         4           Li  tau(   4) = (  -0.0962314   0.1995279   1.2975540  )
         5           Li  tau(   5) = (   0.0182350   0.1207711   1.2991378  )
         6           Li  tau(   6) = (   0.0453232   0.2656238   1.2815293  )
         7           Li  tau(   7) = (   0.0669942   0.0904568   1.0336250  )
         8           Li  tau(   8) = (   0.2214985   0.0127904   1.0336250  )
         9           Li  tau(   9) = (   0.2115073   0.1854282   1.0336250  )
        10           Li  tau(  10) = (   0.1026185   0.2082842   1.1343787  )
        11           Li  tau(  11) = (  -0.0632305   0.2544714   1.1263079  )
        12           Li  tau(  12) = (  -0.0435657   0.1111294   1.1257936  )
        13           Li  tau(  13) = (   0.0000000   0.0000000   0.9626942  )
        14           Li  tau(  14) = (   0.6667274   0.5778532   1.1996582  )
        15           Cr  tau(  15) = (   0.1564054   0.0935852   1.2097978  )
        16           Cr  tau(  16) = (  -0.0000000   0.1924500   0.9478909  )
        17           N   tau(  17) = (   0.2513880   0.0783921   1.2459733  )
        18           N   tau(  18) = (   0.1556930   0.0989274   1.1129481  )
        19           N   tau(  19) = (  -0.0969339   0.1982778   0.9168466  )
        20           N   tau(  20) = (   0.0434200   0.1055885   0.9168466  )
        21           N   tau(  21) = (   0.0535141   0.2734837   0.9168466  )
        22           N   tau(  22) = (   0.1031264   0.0004352   1.2395271  )
        23           N   tau(  23) = (   0.1182435   0.1783135   1.2567149  )
        24           N   tau(  24) = (  -0.0000000   0.1924500   1.0497374  )
        25           O   tau(  25) = (   0.9876021   0.0064513   1.0660544  )
        26           Li  tau(  26) = (   0.2664058   0.0904176   1.3631900  )
        27           Li  tau(  27) = (   0.1104398   0.1790026   1.3628803  )
        28           Li  tau(  28) = (   0.1190325   0.0165687   1.3629328  )
        29           Li  tau(  29) = (  -0.0908390   0.2075233   1.7608221  )
        30           Li  tau(  30) = (   0.0439162   0.1176176   1.7712715  )
        31           Li  tau(  31) = (   0.0550024   0.2680123   1.7841463  )
        32           Li  tau(  32) = (   0.0679158   0.0965821   1.5294978  )
        33           Li  tau(  33) = (   0.2149378   0.0174437   1.5270433  )
        34           Li  tau(  34) = (   0.2128152   0.1918294   1.5424193  )
        35           Li  tau(  35) = (   0.0986667   0.2054399   1.6141215  )
        36           Li  tau(  36) = (  -0.0730593   0.2920927   1.6287378  )
        37           Li  tau(  37) = (  -0.0479531   0.0974009   1.6142326  )
        38           Li  tau(  38) = (  -0.3333666   0.5755979   1.4415078  )
        39           Li  tau(  39) = (   0.0112548   0.0074669   1.6910952  )
        40           Cr  tau(  40) = (   0.1679810   0.0962010   1.7027251  )
        41           Cr  tau(  41) = (  -0.0050311   0.1949332   1.4508001  )
        42           N   tau(  42) = (   0.2750423   0.1054629   1.7235538  )
        43           N   tau(  43) = (   0.1706062   0.0972922   1.6018371  )
        44           N   tau(  44) = (  -0.1104930   0.2014571   1.4143850  )
        45           N   tau(  45) = (   0.0373403   0.1078520   1.4116032  )
        46           N   tau(  46) = (   0.0445461   0.2673514   1.4018492  )
        47           N   tau(  47) = (   0.1217921   0.0194353   1.7404669  )
        48           N   tau(  48) = (   0.1238481   0.1800276   1.7351487  )
        49           N   tau(  49) = (   0.0013064   0.2022560   1.5473693  )
        50           O   tau(  50) = (   0.0018935   0.0047713   1.5765084  )
        51           Li  tau(  51) = (   0.0926606   0.3759836   0.8766270  )
        52           Li  tau(  52) = (  -0.0386079   0.4696050   0.8766270  )
        53           Li  tau(  53) = (  -0.0540524   0.3091127   0.8766270  )
        54           Li  tau(  54) = (  -0.2525779   0.4757823   1.2836624  )
        55           Li  tau(  55) = (  -0.1141164   0.3908248   1.2850299  )
        56           Li  tau(  56) = (  -0.1169748   0.5548049   1.2774793  )
        57           Li  tau(  57) = (  -0.0996725   0.3791318   1.0336250  )
        58           Li  tau(  58) = (   0.0548319   0.3014656   1.0336250  )
        59           Li  tau(  59) = (   0.0448406   0.4741032   1.0336250  )
        60           Li  tau(  60) = (  -0.0597258   0.4847133   1.1181377  )
        61           Li  tau(  61) = (  -0.2254585   0.5657780   1.1247241  )
        62           Li  tau(  62) = (  -0.2139385   0.3933969   1.1194526  )
        63           Li  tau(  63) = (  -0.1666667   0.2886750   0.9626942  )
        64           Li  tau(  64) = (   0.8192546   0.2882934   1.2091783  )
        65           Cr  tau(  65) = (   0.0011553   0.3773715   1.2097043  )
        66           Cr  tau(  66) = (  -0.1666667   0.4811250   0.9478909  )
        67           N   tau(  67) = (   0.0882109   0.3771179   1.2580883  )
        68           N   tau(  68) = (   0.0016643   0.3808781   1.1086701  )
        69           N   tau(  69) = (  -0.2636006   0.4869528   0.9168466  )
        70           N   tau(  70) = (  -0.1232467   0.3942641   0.9168466  )
        71           N   tau(  71) = (  -0.1131527   0.5621587   0.9168466  )
        72           N   tau(  72) = (  -0.0629897   0.3012657   1.2362544  )
        73           N   tau(  73) = (  -0.0379096   0.4647561   1.2530740  )
        74           N   tau(  74) = (  -0.1666667   0.4811250   1.0497374  )
        75           O   tau(  75) = (   0.8358638   0.2766676   1.0768427  )
        76           Li  tau(  76) = (   0.0704691   0.3817547   1.3883258  )
        77           Li  tau(  77) = (  -0.0208155   0.4815815   1.3724472  )
        78           Li  tau(  78) = (  -0.0686212   0.2977265   1.3771985  )
        79           Li  tau(  79) = (  -0.2680871   0.4946391   1.7792664  )
        80           Li  tau(  80) = (  -0.1208337   0.3787151   1.7874073  )
        81           Li  tau(  81) = (  -0.1010780   0.5645887   1.7648254  )
        82           Li  tau(  82) = (  -0.1075469   0.3776345   1.5257926  )
        83           Li  tau(  83) = (   0.0633018   0.3068831   1.5285394  )
        84           Li  tau(  84) = (   0.0458321   0.4815855   1.5374985  )
        85           Li  tau(  85) = (  -0.0603441   0.4888598   1.6174995  )
        86           Li  tau(  86) = (  -0.2253603   0.5657406   1.6154949  )
        87           Li  tau(  87) = (  -0.2184572   0.3875141   1.6139988  )
        88           Li  tau(  88) = (   0.8232579   0.2901612   1.4659774  )
        89           Li  tau(  89) = (  -0.1690558   0.3040686   1.6963491  )
        90           Cr  tau(  90) = (  -0.0016149   0.3843489   1.7046420  )
        91           Cr  tau(  91) = (  -0.1661611   0.4853866   1.4457507  )
        92           N   tau(  92) = (   0.0916490   0.3697250   1.7377084  )
        93           N   tau(  93) = (  -0.0011878   0.3830416   1.6076813  )
        94           N   tau(  94) = (  -0.2550219   0.4922932   1.4067350  )
        95           N   tau(  95) = (  -0.1265949   0.3959537   1.4144727  )
        96           N   tau(  96) = (  -0.1087567   0.5715298   1.4127136  )
        97           N   tau(  97) = (  -0.0497159   0.3099280   1.7445344  )
        98           N   tau(  98) = (  -0.0352797   0.4770627   1.7302220  )
        99           N   tau(  99) = (  -0.1711369   0.4826433   1.5485849  )
       100           O   tau( 100) = (  -0.1733460   0.3035379   1.5802136  )
       101           Li  tau( 101) = (   0.5926583   0.0873080   0.8766270  )
       102           Li  tau( 102) = (   0.4613921   0.1809300   0.8766270  )
       103           Li  tau( 103) = (   0.4459477   0.0204373   0.8766270  )
       104           Li  tau( 104) = (   0.2238677   0.2071575   1.2795539  )
       105           Li  tau( 105) = (   0.3813888   0.0955179   1.2860293  )
       106           Li  tau( 106) = (   0.3733770   0.2568920   1.2815877  )
       107           Li  tau( 107) = (   0.4003275   0.0904568   1.0336250  )
       108           Li  tau( 108) = (   0.5548318   0.0127904   1.0336250  )
       109           Li  tau( 109) = (   0.5448406   0.1854282   1.0336250  )
       110           Li  tau( 110) = (   0.4379500   0.2084853   1.1124864  )
       111           Li  tau( 111) = (   0.2714750   0.2689456   1.1215332  )
       112           Li  tau( 112) = (   0.2891951   0.1176264   1.1320936  )
       113           Li  tau( 113) = (   0.3333333   0.0000000   0.9626942  )
       114           Li  tau( 114) = (   0.3357645   0.0191462   1.1840133  )
       115           Cr  tau( 115) = (   0.5003746   0.0929482   1.2046491  )
       116           Cr  tau( 116) = (   0.3333333   0.1924500   0.9478909  )
       117           N   tau( 117) = (   0.5965096   0.0764571   1.2278388  )
       118           N   tau( 118) = (   0.4964455   0.0861122   1.1011720  )
       119           N   tau( 119) = (   0.2363994   0.1982778   0.9168466  )
       120           N   tau( 120) = (   0.3767532   0.1055885   0.9168466  )
       121           N   tau( 121) = (   0.3868473   0.2734837   0.9168466  )
       122           N   tau( 122) = (   0.4447912   0.0162396   1.2416661  )
       123           N   tau( 123) = (   0.4576899   0.1855802   1.2332797  )
       124           N   tau( 124) = (   0.3333333   0.1924500   1.0497374  )
       125           O   tau( 125) = (   0.0044222   0.5669807   1.0729505  )
       126           Li  tau( 126) = (   0.6789476   0.0037447   1.4677307  )
       127           Li  tau( 127) = (   0.4665987   0.1777186   1.3681868  )
       128           Li  tau( 128) = (   0.5890115   0.0870718   1.3949765  )
       129           Li  tau( 129) = (   0.2308282   0.2015453   1.7622014  )
       130           Li  tau( 130) = (   0.3729674   0.1142169   1.7539494  )
       131           Li  tau( 131) = (   0.4015074   0.2766243   1.7823872  )
       132           Li  tau( 132) = (   0.4136902   0.0864798   1.5344771  )
       133           Li  tau( 133) = (   0.0692430   0.4899047   1.7621488  )
       134           Li  tau( 134) = (   0.5394067   0.1941179   1.5273004  )
       135           Li  tau( 135) = (   0.4322905   0.2065023   1.6356457  )
       136           Li  tau( 136) = (   0.2967932   0.2618613   1.6309703  )
       137           Li  tau( 137) = (   0.2921500   0.0930773   1.6034442  )
       138           Li  tau( 138) = (   0.4531857   0.0111060   1.3776251  )
       139           Li  tau( 139) = (   0.1317372   0.5670736   1.6225547  )
       140           Cr  tau( 140) = (   0.5197860   0.1009594   1.7020998  )
       141           Cr  tau( 141) = (   0.3321569   0.1792357   1.4540378  )
       142           N   tau( 142) = (   0.6086363   0.0928050   1.7292285  )
       143           N   tau( 143) = (   0.5085079   0.1081530   1.5956773  )
       144           N   tau( 144) = (   0.2303729   0.1890019   1.4289312  )
       145           N   tau( 145) = (   0.3772640   0.0931293   1.4065246  )
       146           N   tau( 146) = (   0.3779565   0.2626369   1.4132454  )
       147           N   tau( 147) = (   0.4627825   0.0118890   1.7354584  )
       148           N   tau( 148) = (   0.4623845   0.1892065   1.7406363  )
       149           N   tau( 149) = (   0.3356821   0.1837808   1.5516765  )
       150           O   tau( 150) = (   0.0089653   0.5706882   1.5644869  )
       151           Li  tau( 151) = (   0.4259940   0.3759836   0.8766270  )
       152           Li  tau( 152) = (   0.2947255   0.4696050   0.8766270  )
       153           Li  tau( 153) = (   0.2792811   0.3091127   0.8766270  )
       154           Li  tau( 154) = (   0.0867802   0.4925142   1.2891501  )
       155           Li  tau( 155) = (   0.1998978   0.3968444   1.2920079  )
       156           Li  tau( 156) = (   0.2273602   0.5621820   1.2746331  )
       157           Li  tau( 157) = (   0.2336608   0.3791318   1.0336250  )
       158           Li  tau( 158) = (   0.3881652   0.3014656   1.0336250  )
       159           Li  tau( 159) = (   0.3781739   0.4741032   1.0336250  )
       160           Li  tau( 160) = (   0.2502168   0.4865332   1.1227897  )
       161           Li  tau( 161) = (   0.1080414   0.5593628   1.1135909  )
       162           Li  tau( 162) = (   0.1198004   0.3910832   1.1060695  )
       163           Li  tau( 163) = (   0.1666667   0.2886750   0.9626942  )
       164           Li  tau( 164) = (   0.1517324   0.2977873   1.1985244  )
       165           Cr  tau( 165) = (   0.3276837   0.3859976   1.2048595  )
       166           Cr  tau( 166) = (   0.1666667   0.4811250   0.9478909  )
       167           N   tau( 167) = (   0.4196296   0.3764289   1.2476155  )
       168           N   tau( 168) = (   0.3299887   0.3846394   1.1045850  )
       169           N   tau( 169) = (   0.0697328   0.4869528   0.9168466  )
       170           N   tau( 170) = (   0.2100866   0.3942641   0.9168466  )
       171           N   tau( 171) = (   0.2201806   0.5621587   0.9168466  )
       172           N   tau( 172) = (   0.2632569   0.3108981   1.2394687  )
       173           N   tau( 173) = (   0.2813406   0.4662773   1.2362836  )
       174           N   tau( 174) = (   0.1666667   0.4811250   1.0497374  )
       175           O   tau( 175) = (   0.1640116   0.2785190   1.0845103  )
       176           Li  tau( 176) = (   0.4132268   0.3718178   1.3684264  )
       177           Li  tau( 177) = (   0.2941276   0.4585986   1.3586023  )
       178           Li  tau( 178) = (   0.2753392   0.3020944   1.3859998  )
       179           Li  tau( 179) = (   0.3374114   0.0103181   1.6972375  )
       180           Li  tau( 180) = (   0.2081966   0.3958321   1.7749417  )
       181           Li  tau( 181) = (   0.2317813   0.5602126   1.7795644  )
       182           Li  tau( 182) = (   0.2411122   0.3643548   1.5380128  )
       183           Li  tau( 183) = (   0.3916267   0.2988725   1.5292699  )
       184           Li  tau( 184) = (   0.3746020   0.4728608   1.5307076  )
       185           Li  tau( 185) = (   0.2575629   0.4822342   1.5969572  )
       186           Li  tau( 186) = (   0.0050630   0.5746909   1.4487546  )
       187           Li  tau( 187) = (   0.1225209   0.3857901   1.6155358  )
       188           Li  tau( 188) = (   0.1512006   0.2806609   1.4442079  )
       189           Li  tau( 189) = (   0.1651355   0.2834269   1.6902244  )
       190           Cr  tau( 190) = (   0.3327016   0.3899646   1.7035083  )
       191           Cr  tau( 191) = (   0.1779886   0.4739636   1.4480475  )
       192           N   tau( 192) = (   0.4361342   0.3883235   1.7344532  )
       193           N   tau( 193) = (   0.3360199   0.3872932   1.5903825  )
       194           N   tau( 194) = (   0.0789858   0.4943779   1.4132805  )
       195           N   tau( 195) = (   0.2046269   0.3839275   1.4082428  )
       196           N   tau( 196) = (   0.2342517   0.5536957   1.4118662  )
       197           N   tau( 197) = (   0.2893909   0.3091916   1.7468604  )
       198           N   tau( 198) = (   0.2966377   0.4749845   1.7422902  )
       199           N   tau( 199) = (   0.1615343   0.4711274   1.5473226  )
       200           O   tau( 200) = (   0.1687408   0.2843439   1.5823760  )
       201           Li  tau( 201) = (   0.9259927   0.0873080   0.8766270  )
       202           Li  tau( 202) = (   0.7947266   0.1809300   0.8766270  )
       203           Li  tau( 203) = (   0.7792805   0.0204373   0.8766270  )
       204           Li  tau( 204) = (   0.5824035   0.1906892   1.2673630  )
       205           Li  tau( 205) = (   0.6973801   0.0974575   1.2856202  )
       206           Li  tau( 206) = (   0.7028912   0.2554561   1.2715942  )
       207           Li  tau( 207) = (   0.7336608   0.0904568   1.0336250  )
       208           Li  tau( 208) = (   0.8881634   0.0127904   1.0336250  )
       209           Li  tau( 209) = (   0.8781757   0.1854282   1.0336250  )
       210           Li  tau( 210) = (   0.7616427   0.1912268   1.1284819  )
       211           Li  tau( 211) = (   0.6329071   0.2816521   1.1153909  )
       212           Li  tau( 212) = (   0.6189980   0.0801430   1.1225091  )
       213           Li  tau( 213) = (   0.6666690   0.0000000   0.9626942  )
       214           Li  tau( 214) = (   0.3406923   0.5726466   1.1905120  )
       215           Cr  tau( 215) = (   0.8322813   0.0932094   1.2082257  )
       216           Cr  tau( 216) = (   0.6666690   0.1924500   0.9478909  )
       217           N   tau( 217) = (   0.9282778   0.0810348   1.2502395  )
       218           N   tau( 218) = (   0.8419768   0.0991874   1.1130649  )
       219           N   tau( 219) = (   0.5697327   0.1982778   0.9168466  )
       220           N   tau( 220) = (   0.7100854   0.1055885   0.9168466  )
       221           N   tau( 221) = (   0.7201783   0.2734837   0.9168466  )
       222           N   tau( 222) = (   0.7778194   0.0103907   1.2361258  )
       223           N   tau( 223) = (   0.7810980   0.1669513   1.2448278  )
       224           N   tau( 224) = (   0.6666690   0.1924500   1.0497374  )
       225           O   tau( 225) = (   0.3345734   0.5693587   1.0753583  )
       226           Li  tau( 226) = (   0.9035453   0.0965026   1.3758368  )
       227           Li  tau( 227) = (   0.7868896   0.1796144   1.3670472  )
       228           Li  tau( 228) = (   0.7704441   0.0109119   1.3541081  )
       229           Li  tau( 229) = (   0.5599174   0.2201783   1.7873956  )
       230           Li  tau( 230) = (   0.7198510   0.1044384   1.7891255  )
       231           Li  tau( 231) = (   0.7092497   0.2840318   1.7901482  )
       232           Li  tau( 232) = (   0.7283075   0.0945068   1.5430797  )
       233           Li  tau( 233) = (   0.8722555   0.0198585   1.5220932  )
       234           Li  tau( 234) = (   0.8710516   0.1932314   1.5394329  )
       235           Li  tau( 235) = (   0.7659850   0.2077664   1.6263417  )
       236           Li  tau( 236) = (   0.6079174   0.2866424   1.6424249  )
       237           Li  tau( 237) = (   0.6231824   0.1031428   1.5843747  )
       238           Li  tau( 238) = (   0.5526508   0.0328381   1.5128244  )
       239           Li  tau( 239) = (   0.4571826   0.5617963   1.6222333  )
       240           Cr  tau( 240) = (   0.8316677   0.1045308   1.7090076  )
       241           Cr  tau( 241) = (   0.6688196   0.1944563   1.4504085  )
       242           N   tau( 242) = (   0.9340577   0.1028628   1.7295207  )
       243           N   tau( 243) = (   0.8338008   0.1073751   1.6029241  )
       244           N   tau( 244) = (   0.5693733   0.1868180   1.4242091  )
       245           N   tau( 245) = (   0.7078237   0.1055523   1.4096688  )
       246           N   tau( 246) = (   0.7223056   0.2714937   1.4185987  )
       247           N   tau( 247) = (   0.7709233   0.0250380   1.7420915  )
       248           N   tau( 248) = (   0.7770305   0.1930151   1.7462292  )
       249           N   tau( 249) = (   0.6645475   0.1881633   1.5509986  )
       250           O   tau( 250) = (   0.6694566   0.0028867   1.5704597  )
       251           Li  tau( 251) = (   0.7593284   0.3759836   0.8766270  )
       252           Li  tau( 252) = (   0.6280565   0.4696050   0.8766270  )
       253           Li  tau( 253) = (   0.6126161   0.3091127   0.8766270  )
       254           Li  tau( 254) = (   0.4118288   0.4918146   1.2760883  )
       255           Li  tau( 255) = (   0.5373495   0.4062722   1.2797877  )
       256           Li  tau( 256) = (   0.5493377   0.5552643   1.2867598  )
       257           Li  tau( 257) = (   0.5669941   0.3791318   1.0336250  )
       258           Li  tau( 258) = (   0.7214991   0.3014656   1.0336250  )
       259           Li  tau( 259) = (   0.7115055   0.4741032   1.0336250  )
       260           Li  tau( 260) = (   0.5829523   0.5086347   1.1253143  )
       261           Li  tau( 261) = (   0.4432039   0.5559919   1.1231637  )
       262           Li  tau( 262) = (   0.4543072   0.3792107   1.1293936  )
       263           Li  tau( 263) = (   0.5000000   0.2886750   0.9626942  )
       264           Li  tau( 264) = (   0.5196224   0.2850598   1.1844516  )
       265           Cr  tau( 265) = (   0.6674988   0.3864370   1.2040705  )
       266           Cr  tau( 266) = (   0.5000000   0.4811250   0.9478909  )
       267           N   tau( 267) = (   0.7645940   0.3742583   1.2360265  )
       268           N   tau( 268) = (   0.6704151   0.3904076   1.1053448  )
       269           N   tau( 269) = (   0.4030661   0.4869528   0.9168466  )
       270           N   tau( 270) = (   0.5434199   0.3942641   0.9168466  )
       271           N   tau( 271) = (   0.5535140   0.5621587   0.9168466  )
       272           N   tau( 272) = (   0.6140071   0.3120617   1.2540441  )
       273           N   tau( 273) = (   0.6276415   0.4684776   1.2421687  )
       274           N   tau( 274) = (   0.5000000   0.4811250   1.0497374  )
       275           O   tau( 275) = (   0.5056624   0.2893126   1.0746687  )
       276           Li  tau( 276) = (   0.7637934   0.3634414   1.3665796  )
       277           Li  tau( 277) = (   0.6413929   0.4541664   1.3741303  )
       278           Li  tau( 278) = (   0.6071401   0.3038839   1.3806816  )
       279           Li  tau( 279) = (   0.6558163   0.0035182   1.6738140  )
       280           Li  tau( 280) = (   0.5396860   0.4022374   1.7830768  )
       281           Li  tau( 281) = (   0.8923420   0.0052594   1.7770222  )
       282           Li  tau( 282) = (   0.5562818   0.3862535   1.5414024  )
       283           Li  tau( 283) = (   0.7123646   0.3126034   1.5322796  )
       284           Li  tau( 284) = (   0.7206633   0.4982350   1.5235251  )
       285           Li  tau( 285) = (   0.6211077   0.4888639   1.5929013  )
       286           Li  tau( 286) = (   0.4128492   0.4992805   1.7768235  )
       287           Li  tau( 287) = (   0.4450302   0.3869022   1.6155417  )
       288           Li  tau( 288) = (   0.4876939   0.3085785   1.4383987  )
       289           Li  tau( 289) = (   0.5043638   0.2997749   1.6908790  )
       290           Cr  tau( 290) = (   0.6620521   0.3943162   1.7077804  )
       291           Cr  tau( 291) = (   0.4933551   0.4809783   1.4419578  )
       292           N   tau( 292) = (   0.7599421   0.3829153   1.7429214  )
       293           N   tau( 293) = (   0.6688196   0.3873055   1.6018429  )
       294           N   tau( 294) = (   0.3975305   0.4848057   1.3978460  )
       295           N   tau( 295) = (   0.5406316   0.4012158   1.4098032  )
       296           N   tau( 296) = (   0.5541393   0.5495954   1.3961278  )
       297           N   tau( 297) = (   0.6011557   0.3211605   1.7496422  )
       298           N   tau( 298) = (   0.6236207   0.4800409   1.7426993  )
       299           N   tau( 299) = (   0.4916481   0.4851598   1.5408940  )
       300           O   tau( 300) = (   0.4947566   0.2898479   1.5923052  )

   Crystallographic axes

     site n.     atom                  positions (cryst. coord.)
         1           Li  tau(   1) = (  0.3097346  0.1512218  0.3321863  )
         2           Li  tau(   2) = (  0.2325188  0.3133799  0.3321863  )
         3           Li  tau(   3) = (  0.1244139  0.0353984  0.3321863  )
         4           Li  tau(   4) = (  0.0189661  0.3455925  0.4916910  )
         5           Li  tau(   5) = (  0.0879622  0.2091818  0.4922912  )
         6           Li  tau(   6) = (  0.1986812  0.4600739  0.4856187  )
         7           Li  tau(   7) = (  0.1192194  0.1566758  0.3916786  )
         8           Li  tau(   8) = (  0.2288830  0.0221536  0.3916786  )
         9           Li  tau(   9) = (  0.3185643  0.3211711  0.3916786  )
        10           Li  tau(  10) = (  0.2228715  0.3607589  0.4298579  )
        11           Li  tau(  11) = (  0.0836886  0.4407573  0.4267996  )
        12           Li  tau(  12) = (  0.0205949  0.1924818  0.4266047  )
        13           Li  tau(  13) = (  0.0000000  0.0000000  0.3648003  )
        14           Li  tau(  14) = (  1.0003511  1.0008711  0.4545947  )
        15           Cr  tau(  15) = (  0.2104369  0.1620943  0.4584370  )
        16           Cr  tau(  16) = (  0.1111111  0.3333332  0.3591908  )
        17           N   tau(  17) = (  0.2966477  0.1357791  0.4721452  )
        18           N   tau(  18) = (  0.2128088  0.1713472  0.4217370  )
        19           N   tau(  19) = (  0.0175419  0.3434273  0.3474270  )
        20           N   tau(  20) = (  0.1043816  0.1828847  0.3474270  )
        21           N   tau(  21) = (  0.2114100  0.4736876  0.3474270  )
        22           N   tau(  22) = (  0.1033777  0.0007538  0.4697025  )
        23           N   tau(  23) = (  0.2211929  0.3088481  0.4762156  )
        24           N   tau(  24) = (  0.1111111  0.3333332  0.3977842  )
        25           O   tau(  25) = (  0.9913267  0.0111739  0.4039673  )
        26           Li  tau(  26) = (  0.3186084  0.1566080  0.5165629  )
        27           Li  tau(  27) = (  0.2137870  0.3100415  0.5164456  )
        28           Li  tau(  28) = (  0.1285985  0.0286979  0.5164655  )
        29           Li  tau(  29) = (  0.0289746  0.3594409  0.6672404  )
        30           Li  tau(  30) = (  0.1118228  0.2037197  0.6712001  )
        31           Li  tau(  31) = (  0.2097394  0.4642110  0.6760788  )
        32           Li  tau(  32) = (  0.1236775  0.1672851  0.5795831  )
        33           Li  tau(  33) = (  0.2250090  0.0302134  0.5786530  )
        34           Li  tau(  34) = (  0.3235680  0.3322582  0.5844795  )
        35           Li  tau(  35) = (  0.2172775  0.3558323  0.6116502  )
        36           Li  tau(  36) = (  0.0955805  0.5059194  0.6171888  )
        37           Li  tau(  37) = (  0.0082813  0.1687032  0.6116922  )
        38           Li  tau(  38) = ( -0.0010450  0.9969649  0.5462405  )
        39           Li  tau(  39) = (  0.0155658  0.0129330  0.6408183  )
        40           Cr  tau(  40) = (  0.2235227  0.1666251  0.6452253  )
        41           Cr  tau(  41) = (  0.1075136  0.3376342  0.5497616  )
        42           N   tau(  42) = (  0.3359313  0.1826671  0.6531181  )
        43           N   tau(  43) = (  0.2267779  0.1685149  0.6069951  )
        44           N   tau(  44) = (  0.0058183  0.3489339  0.5359626  )
        45           N   tau(  45) = (  0.0996087  0.1868051  0.5349085  )
        46           N   tau(  46) = (  0.1989015  0.4630661  0.5312124  )
        47           N   tau(  47) = (  0.1330131  0.0336629  0.6595271  )
        48           N   tau(  48) = (  0.2277871  0.3118170  0.6575118  )
        49           N   tau(  49) = (  0.1180789  0.3503176  0.5863553  )
        50           O   tau(  50) = (  0.0046482  0.0082641  0.5973971  )
        51           Li  tau(  51) = (  0.3097348  0.6512226  0.3321863  )
        52           Li  tau(  52) = (  0.2325186  0.8133797  0.3321863  )
        53           Li  tau(  53) = (  0.1244139  0.5353989  0.3321863  )
        54           Li  tau(  54) = (  0.0221152  0.8240791  0.4864270  )
        55           Li  tau(  55) = (  0.1115265  0.6769285  0.4869452  )
        56           Li  tau(  56) = (  0.2033420  0.9609503  0.4840840  )
        57           Li  tau(  57) = (  0.1192194  0.6566756  0.3916786  )
        58           Li  tau(  58) = (  0.2288831  0.5221537  0.3916786  )
        59           Li  tau(  59) = (  0.3185642  0.8211709  0.3916786  )
        60           Li  tau(  60) = (  0.2201236  0.8395481  0.4237036  )
        61           Li  tau(  61) = (  0.1011935  0.9799562  0.4261994  )
        62           Li  tau(  62) = (  0.0131893  0.6813834  0.4242019  )
        63           Li  tau(  63) = ( -0.0000001  0.4999998  0.3648003  )
        64           Li  tau(  64) = (  0.9857009  0.4993388  0.4582022  )
        65           Cr  tau(  65) = (  0.2190309  0.6536267  0.4584016  )
        66           Cr  tau(  66) = (  0.1111110  0.8333330  0.3591908  )
        67           N   tau(  67) = (  0.3059400  0.6531874  0.4767360  )
        68           N   tau(  68) = (  0.2215644  0.6597001  0.4201160  )
        69           N   tau(  69) = (  0.0175418  0.8434271  0.3474270  )
        70           N   tau(  70) = (  0.1043818  0.6828855  0.3474270  )
        71           N   tau(  71) = (  0.2114098  0.9736874  0.3474270  )
        72           N   tau(  72) = (  0.1109461  0.5218075  0.4684624  )
        73           N   tau(  73) = (  0.2304175  0.8049811  0.4748359  )
        74           N   tau(  74) = (  0.1111110  0.8333330  0.3977842  )
        75           O   tau(  75) = (  0.9955979  0.4792023  0.4080554  )
        76           Li  tau(  76) = (  0.2908753  0.6612185  0.5260878  )
        77           Li  tau(  77) = (  0.2572257  0.8341235  0.5200708  )
        78           Li  tau(  78) = (  0.1032713  0.5156774  0.5218713  )
        79           Li  tau(  79) = (  0.0174929  0.8567401  0.6742296  )
        80           Li  tau(  80) = (  0.0978176  0.6559538  0.6773145  )
        81           Li  tau(  81) = (  0.2248874  0.9778963  0.6687574  )
        82           Li  tau(  82) = (  0.1104805  0.6540822  0.5781791  )
        83           Li  tau(  83) = (  0.2404809  0.5315372  0.5792199  )
        84           Li  tau(  84) = (  0.3238756  0.8341306  0.5826149  )
        85           Li  tau(  85) = (  0.2218993  0.8467300  0.6129302  )
        86           Li  tau(  86) = (  0.1012701  0.9798914  0.6121706  )
        87           Li  tau(  87) = (  0.0052742  0.6711941  0.6116036  )
        88           Li  tau(  88) = (  0.9907826  0.5025739  0.5555129  )
        89           Li  tau(  89) = (  0.0064983  0.5266622  0.6428092  )
        90           Cr  tau(  90) = (  0.2202890  0.6657118  0.6459517  )
        91           Cr  tau(  91) = (  0.1140769  0.8407142  0.5478482  )
        92           N   tau(  92) = (  0.3051099  0.6403825  0.6584818  )
        93           N   tau(  93) = (  0.2199614  0.6634475  0.6092097  )
        94           N   tau(  94) = (  0.0292038  0.8526769  0.5330637  )
        95           N   tau(  95) = (  0.1020091  0.6858119  0.5359958  )
        96           N   tau(  96) = (  0.2212162  0.9899187  0.5353292  )
        97           N   tau(  97) = (  0.1292211  0.5368110  0.6610684  )
        98           N   tau(  98) = (  0.2401526  0.8262969  0.6556449  )
        99           N   tau(  99) = (  0.1075174  0.8359628  0.5868159  )
       100           O   tau( 100) = (  0.0019017  0.5257431  0.5988012  )
       101           Li  tau( 101) = (  0.6430655  0.1512218  0.3321863  )
       102           Li  tau( 102) = (  0.5658521  0.3133799  0.3321863  )
       103           Li  tau( 103) = (  0.4577472  0.0353984  0.3321863  )
       104           Li  tau( 104) = (  0.3434702  0.3588073  0.4848702  )
       105           Li  tau( 105) = (  0.4365361  0.1654418  0.4873239  )
       106           Li  tau( 106) = (  0.5216937  0.4449500  0.4856408  )
       107           Li  tau( 107) = (  0.4525527  0.1566758  0.3916786  )
       108           Li  tau( 108) = (  0.5622164  0.0221536  0.3916786  )
       109           Li  tau( 109) = (  0.6518976  0.3211711  0.3916786  )
       110           Li  tau( 110) = (  0.5583190  0.3611071  0.4215621  )
       111           Li  tau( 111) = (  0.4267508  0.4658275  0.4249903  )
       112           Li  tau( 112) = (  0.3571068  0.2037349  0.4289920  )
       113           Li  tau( 113) = (  0.3333333  0.0000000  0.3648003  )
       114           Li  tau( 114) = (  0.3468186  0.0331623  0.4486663  )
       115           Cr  tau( 115) = (  0.5540382  0.1609910  0.4564859  )
       116           Cr  tau( 116) = (  0.4444444  0.3333332  0.3591908  )
       117           N   tau( 117) = (  0.6406521  0.1324275  0.4652734  )
       118           N   tau( 118) = (  0.5461625  0.1491508  0.4172747  )
       119           N   tau( 119) = (  0.3508752  0.3434273  0.3474270  )
       120           N   tau( 120) = (  0.4377148  0.1828847  0.3474270  )
       121           N   tau( 121) = (  0.5447432  0.4736876  0.3474270  )
       122           N   tau( 122) = (  0.4541671  0.0281279  0.4705131  )
       123           N   tau( 123) = (  0.5648346  0.3214343  0.4673351  )
       124           N   tau( 124) = (  0.4444444  0.3333332  0.3977842  )
       125           O   tau( 125) = (  0.3317686  0.9820394  0.4065805  )
       126           Li  tau( 126) = (  0.6811096  0.0064860  0.5561773  )
       127           Li  tau( 127) = (  0.5692046  0.3078176  0.5184564  )
       128           Li  tau( 128) = (  0.6392825  0.1508129  0.5286080  )
       129           Li  tau( 129) = (  0.3471904  0.3490867  0.6677631  )
       130           Li  tau( 130) = (  0.4389105  0.1978295  0.6646361  )
       131           Li  tau( 131) = (  0.5612165  0.4791274  0.6754122  )
       132           Li  tau( 132) = (  0.4636194  0.1497875  0.5814699  )
       133           Li  tau( 133) = (  0.3520896  0.8485399  0.6677431  )
       134           Li  tau( 134) = (  0.6514807  0.3362221  0.5787504  )
       135           Li  tau( 135) = (  0.5515147  0.3576725  0.6198064  )
       136           Li  tau( 136) = (  0.4479789  0.4535571  0.6180348  )
       137           Li  tau( 137) = (  0.3458882  0.1612147  0.6076041  )
       138           Li  tau( 138) = (  0.4595978  0.0192362  0.5220329  )
       139           Li  tau( 139) = (  0.4591373  0.9822003  0.6148458  )
       140           Cr  tau( 140) = (  0.5780749  0.1748668  0.6449884  )
       141           Cr  tau( 141) = (  0.4356387  0.3104454  0.5509885  )
       142           N   tau( 142) = (  0.6622172  0.1607430  0.6552684  )
       143           N   tau( 143) = (  0.5709501  0.1873264  0.6046610  )
       144           N   tau( 144) = (  0.3394932  0.3273610  0.5414747  )
       145           N   tau( 145) = (  0.4310323  0.1613048  0.5329840  )
       146           N   tau( 146) = (  0.5295900  0.4549004  0.5355308  )
       147           N   tau( 147) = (  0.4696466  0.0205923  0.6576292  )
       148           N   tau( 148) = (  0.5716229  0.3277153  0.6595913  )
       149           N   tau( 149) = (  0.4417880  0.3183176  0.5879874  )
       150           O   tau( 150) = (  0.3384523  0.9884610  0.5928418  )
       151           Li  tau( 151) = (  0.6430682  0.6512226  0.3321863  )
       152           Li  tau( 152) = (  0.5658520  0.8133797  0.3321863  )
       153           Li  tau( 153) = (  0.4577474  0.5353989  0.3321863  )
       154           Li  tau( 154) = (  0.3711334  0.8530595  0.4885065  )
       155           Li  tau( 155) = (  0.4290160  0.6873546  0.4895894  )
       156           Li  tau( 156) = (  0.5519362  0.9737279  0.4830055  )
       157           Li  tau( 157) = (  0.4525527  0.6566756  0.3916786  )
       158           Li  tau( 158) = (  0.5622164  0.5221537  0.3916786  )
       159           Li  tau( 159) = (  0.6518976  0.8211709  0.3916786  )
       160           Li  tau( 160) = (  0.5311169  0.8427003  0.4254664  )
       161           Li  tau( 161) = (  0.4309896  0.9688448  0.4219806  )
       162           Li  tau( 162) = (  0.3455924  0.6773759  0.4191305  )
       163           Li  tau( 163) = (  0.3333333  0.4999998  0.3648003  )
       164           Li  tau( 164) = (  0.3236600  0.5157827  0.4541651  )
       165           Cr  tau( 165) = (  0.5505395  0.6685674  0.4565657  )
       166           Cr  tau( 166) = (  0.4444443  0.8333330  0.3591908  )
       167           N   tau( 167) = (  0.6369610  0.6519939  0.4727675  )
       168           N   tau( 168) = (  0.5520603  0.6662149  0.4185680  )
       169           N   tau( 169) = (  0.3508751  0.8434271  0.3474270  )
       170           N   tau( 170) = (  0.4377151  0.6828855  0.3474270  )
       171           N   tau( 171) = (  0.5447431  0.9736874  0.3474270  )
       172           N   tau( 172) = (  0.4427540  0.5384913  0.4696804  )
       173           N   tau( 173) = (  0.5505459  0.8076160  0.4684734  )
       174           N   tau( 174) = (  0.4444443  0.8333330  0.3977842  )
       175           O   tau( 175) = (  0.3248147  0.4824091  0.4109609  )
       176           Li  tau( 176) = (  0.6278959  0.6440074  0.5185472  )
       177           Li  tau( 177) = (  0.5588997  0.7943161  0.5148245  )
       178           Li  tau( 178) = (  0.4497535  0.5232429  0.5252064  )
       179           Li  tau( 179) = (  0.3433686  0.0178715  0.6431458  )
       180           Li  tau( 180) = (  0.4367304  0.6856014  0.6725908  )
       181           Li  tau( 181) = (  0.5552202  0.9703166  0.6743426  )
       182           Li  tau( 182) = (  0.4514725  0.6310810  0.5828097  )
       183           Li  tau( 183) = (  0.5641808  0.5176624  0.5794967  )
       184           Li  tau( 184) = (  0.6476083  0.8190189  0.5800415  )
       185           Li  tau( 185) = (  0.5359810  0.8352542  0.6051459  )
       186           Li  tau( 186) = (  0.3368609  0.9953939  0.5489865  )
       187           Li  tau( 187) = (  0.3452569  0.6682080  0.6121861  )
       188           Li  tau( 188) = (  0.3132403  0.4861189  0.5472636  )
       189           Li  tau( 189) = (  0.3287721  0.4909099  0.6404883  )
       190           Cr  tau( 190) = (  0.5578477  0.6754385  0.6455221  )
       191           Cr  tau( 191) = (  0.4516316  0.8209290  0.5487186  )
       192           N   tau( 192) = (  0.6603329  0.6725961  0.6572483  )
       193           N   tau( 193) = (  0.5596237  0.6708115  0.6026545  )
       194           N   tau( 194) = (  0.3644150  0.8562876  0.5355441  )
       195           N   tau( 195) = (  0.4262876  0.6649820  0.5336351  )
       196           N   tau( 196) = (  0.5539280  0.9590291  0.5350081  )
       197           N   tau( 197) = (  0.4679028  0.5355355  0.6619498  )
       198           N   tau( 198) = (  0.5708702  0.8226974  0.6602180  )
       199           N   tau( 199) = (  0.4335398  0.8160166  0.5863376  )
       200           O   tau( 200) = (  0.3329068  0.4924981  0.5996206  )
       201           Li  tau( 201) = (  0.9764000  0.1512218  0.3321863  )
       202           Li  tau( 202) = (  0.8991866  0.3133799  0.3321863  )
       203           Li  tau( 203) = (  0.7910799  0.0353984  0.3321863  )
       204           Li  tau( 204) = (  0.6924979  0.3302833  0.4802505  )
       205           Li  tau( 205) = (  0.7536473  0.1688014  0.4871689  )
       206           Li  tau( 206) = (  0.8503788  0.4424630  0.4818539  )
       207           Li  tau( 207) = (  0.7858861  0.1566758  0.3916786  )
       208           Li  tau( 208) = (  0.8955479  0.0221536  0.3916786  )
       209           Li  tau( 209) = (  0.9852327  0.3211711  0.3916786  )
       210           Li  tau( 210) = (  0.8720476  0.3312146  0.4276234  )
       211           Li  tau( 211) = (  0.7955190  0.4878357  0.4226627  )
       212           Li  tau( 212) = (  0.6652686  0.1388117  0.4253601  )
       213           Li  tau( 213) = (  0.6666690  0.0000000  0.3648003  )
       214           Li  tau( 214) = (  0.6713100  0.9918531  0.4511289  )
       215           Cr  tau( 215) = (  0.8860958  0.1614434  0.4578413  )
       216           Cr  tau( 216) = (  0.7777800  0.3333332  0.3591908  )
       217           N   tau( 217) = (  0.9750633  0.1403564  0.4737618  )
       218           N   tau( 218) = (  0.8992427  0.1717976  0.4217813  )
       219           N   tau( 219) = (  0.6842085  0.3434273  0.3474270  )
       220           N   tau( 220) = (  0.7710469  0.1828847  0.3474270  )
       221           N   tau( 221) = (  0.8780741  0.4736876  0.3474270  )
       222           N   tau( 222) = (  0.7838185  0.0179973  0.4684136  )
       223           N   tau( 223) = (  0.8774874  0.2891681  0.4717111  )
       224           N   tau( 224) = (  0.7777800  0.3333332  0.3977842  )
       225           O   tau( 225) = (  0.6632928  0.9861582  0.4074929  )
       226           Li  tau( 226) = (  0.9592611  0.1671474  0.5213553  )
       227           Li  tau( 227) = (  0.8905900  0.3111013  0.5180246  )
       228           Li  tau( 228) = (  0.7767441  0.0189000  0.5131215  )
       229           Li  tau( 229) = (  0.6870374  0.3813600  0.6773101  )
       230           Li  tau( 230) = (  0.7801485  0.1808926  0.6779656  )
       231           Li  tau( 231) = (  0.8732355  0.4919575  0.6783532  )
       232           Li  tau( 232) = (  0.7828711  0.1636906  0.5847298  )
       233           Li  tau( 233) = (  0.8837208  0.0343960  0.5767772  )
       234           Li  tau( 234) = (  0.9826138  0.3346866  0.5833479  )
       235           Li  tau( 235) = (  0.8859390  0.3598620  0.6162808  )
       236           Li  tau( 236) = (  0.7734105  0.4964792  0.6223753  )
       237           Li  tau( 237) = (  0.6827319  0.1786485  0.6003780  )
       238           Li  tau( 238) = (  0.5716099  0.0568772  0.5732649  )
       239           Li  tau( 239) = (  0.7815358  0.9730598  0.6147240  )
       240           Cr  tau( 240) = (  0.8920185  0.1810526  0.6476060  )
       241           Cr  tau( 241) = (  0.7810890  0.3368082  0.5496133  )
       242           N   tau( 242) = (  0.9934456  0.1781636  0.6553792  )
       243           N   tau( 243) = (  0.8957939  0.1859792  0.6074070  )
       244           N   tau( 244) = (  0.6772327  0.3235782  0.5396853  )
       245           N   tau( 245) = (  0.7687643  0.1828220  0.5341755  )
       246           N   tau( 246) = (  0.8790525  0.4702409  0.5375593  )
       247           N   tau( 247) = (  0.7853790  0.0433672  0.6601427  )
       248           N   tau( 248) = (  0.8884678  0.3343120  0.6617106  )
       249           N   tau( 249) = (  0.7731837  0.3259084  0.5877305  )
       250           O   tau( 250) = (  0.6711233  0.0049999  0.5951051  )
       251           Li  tau( 251) = (  0.9764026  0.6512226  0.3321863  )
       252           Li  tau( 252) = (  0.8991830  0.8133797  0.3321863  )
       253           Li  tau( 253) = (  0.7910824  0.5353989  0.3321863  )
       254           Li  tau( 254) = (  0.6957781  0.8518479  0.4835569  )
       255           Li  tau( 255) = (  0.7719109  0.7036841  0.4849587  )
       256           Li  tau( 256) = (  0.8699197  0.9617460  0.4876007  )
       257           Li  tau( 257) = (  0.7858860  0.6566756  0.3916786  )
       258           Li  tau( 258) = (  0.8955503  0.5221537  0.3916786  )
       259           Li  tau( 259) = (  0.9852291  0.8211709  0.3916786  )
       260           Li  tau( 260) = (  0.8766127  0.8809812  0.4264231  )
       261           Li  tau( 261) = (  0.7642060  0.9630062  0.4256081  )
       262           Li  tau( 262) = (  0.6732447  0.6568122  0.4279689  )
       263           Li  tau( 263) = (  0.6666666  0.4999998  0.3648003  )
       264           Li  tau( 264) = (  0.6842017  0.4937381  0.4488324  )
       265           Cr  tau( 265) = (  0.8906084  0.6693286  0.4562667  )
       266           Cr  tau( 266) = (  0.7777776  0.8333330  0.3591908  )
       267           N   tau( 267) = (  0.9806722  0.6482345  0.4683760  )
       268           N   tau( 268) = (  0.8958170  0.6762057  0.4188559  )
       269           N   tau( 269) = (  0.6842084  0.8434271  0.3474270  )
       270           N   tau( 270) = (  0.7710484  0.6828855  0.3474270  )
       271           N   tau( 271) = (  0.8780764  0.9736874  0.3474270  )
       272           N   tau( 272) = (  0.7941759  0.5405067  0.4752035  )
       273           N   tau( 273) = (  0.8981172  0.8114271  0.4707035  )
       274           N   tau( 274) = (  0.7777776  0.8333330  0.3977842  )
       275           O   tau( 275) = (  0.6726971  0.5011041  0.4072316  )
       276           Li  tau( 276) = (  0.9736263  0.6294989  0.5178474  )
       277           Li  tau( 277) = (  0.9036060  0.7866393  0.5207086  )
       278           Li  tau( 278) = (  0.7825876  0.5263424  0.5231912  )
       279           Li  tau( 279) = (  0.6578476  0.0060938  0.6342698  )
       280           Li  tau( 280) = (  0.7719179  0.6966955  0.6756735  )
       281           Li  tau( 281) = (  0.8953785  0.0091096  0.6733792  )
       282           Li  tau( 282) = (  0.7792853  0.6690107  0.5840942  )
       283           Li  tau( 283) = (  0.8928463  0.5414450  0.5806372  )
       284           Li  tau( 284) = (  1.0083195  0.8629684  0.5773198  )
       285           Li  tau( 285) = (  0.9033534  0.8467371  0.6036090  )
       286           Li  tau( 286) = (  0.7011090  0.8647793  0.6733039  )
       287           Li  tau( 287) = (  0.6684083  0.6701343  0.6121883  )
       288           Li  tau( 288) = (  0.6658518  0.5344737  0.5450623  )
       289           Li  tau( 289) = (  0.6774389  0.5192253  0.6407364  )
       290           Cr  tau( 290) = (  0.8897106  0.6829756  0.6471409  )
       291           Cr  tau( 291) = (  0.7710481  0.8330789  0.5464110  )
       292           N   tau( 292) = (  0.9810183  0.6632288  0.6604572  )
       293           N   tau( 293) = (  0.8924305  0.6708328  0.6069973  )
       294           N   tau( 294) = (  0.6774331  0.8397081  0.5296954  )
       295           N   tau( 295) = (  0.7722737  0.6949261  0.5342264  )
       296           N   tau( 296) = (  0.8714483  0.9519272  0.5290443  )
       297           N   tau( 297) = (  0.7865778  0.5562663  0.6630039  )
       298           N   tau( 298) = (  0.9007725  0.8314553  0.6603730  )
       299           N   tau( 299) = (  0.7717552  0.8403215  0.5839015  )
       300           O   tau( 300) = (  0.6621004  0.5020314  0.6033831  )

     number of k points=     1  Gaussian smearing, width (Ry)=  0.0147
                       cart. coord. in units 2pi/alat
        k(    1) = (   0.0000000   0.0000000   0.0000000), wk =   2.0000000

                       cryst. coord.
        k(    1) = (   0.0000000   0.0000000   0.0000000), wk =   2.0000000

     Dense  grid:  5457965 G-vectors     FFT dimensions: ( 240, 160, 640)

     Smooth grid:  2970742 G-vectors     FFT dimensions: ( 200, 135, 540)

     Dynamical RAM for                 wfc:    1182.84 MB

     Dynamical RAM for     wfc (w. buffer):    1182.84 MB

     Dynamical RAM for           str. fact:      83.28 MB

     Dynamical RAM for           local pot:       0.00 MB

     Dynamical RAM for          nlocal pot:    3977.76 MB

     Dynamical RAM for                qrad:       7.46 MB

     Dynamical RAM for          rho,v,vnew:     203.09 MB

     Dynamical RAM for               rhoin:      67.70 MB

     Dynamical RAM for            rho*nmix:     333.13 MB

     Dynamical RAM for           G-vectors:      83.74 MB

     Dynamical RAM for          h,s,v(r/c):      63.83 MB

     Dynamical RAM for          <psi|beta>:      17.89 MB

     Dynamical RAM for                 psi:    2365.69 MB

     Dynamical RAM for                hpsi:    2365.69 MB

     Dynamical RAM for                spsi:    2365.69 MB

     Dynamical RAM for      wfcinit/wfcrot:    4336.08 MB

     Dynamical RAM for           addusdens:    7370.47 MB

     Dynamical RAM for          addusforce:   14335.60 MB

     Dynamical RAM for         addusstress:    4184.93 MB

     Estimated static dynamical RAM per process >       5.81 GB

     Estimated max dynamical RAM per process >      20.13 GB

     Estimated total dynamical RAM >      80.52 GB

     Check: negative core charge=   -0.000002

     Initial potential from superposition of free atoms

     starting charge    1292.2742, renormalised to    1392.0000

     negative rho (up, down):  2.477E-02 0.000E+00
     Starting wfcs are 1512 randomized atomic wfcs
     Checking if some PAW data can be deallocated... 

     total cpu time spent up to now is       35.5 secs

     per-process dynamical memory:  1708.5 Mb

     Self-consistent Calculation
[tb_dev] Currently allocated     1.26E+02 Mbytes, locked:    0 /  11
[tb_pin] Currently allocated     0.00E+00 Mbytes, locked:    0 /   0

     iteration #  1     ecut=    90.00 Ry     beta= 0.20
     Davidson diagonalization with overlap

---- Real-time Memory Report at c_bands before calling an iterative solver
         10172 MiB given to the printing process from OS
          1746 MiB allocation reported by mallinfo(arena+hblkhd)
        465828 MiB available memory on the node where the printing process lives
     GPU memory used/free/total (MiB): 16367 / 48601 / 64969
------------------
     ethr =  1.00E-02,  avg # of iterations =  3.0

     negative rho (up, down):  4.034E-02 0.000E+00

     total cpu time spent up to now is       39.3 secs

     total energy              =   -9071.92404115 Ry
     estimated scf accuracy    <     236.24105784 Ry
[tb_dev] Currently allocated     2.41E+01 Mbytes, locked:    0 /   6
[tb_pin] Currently allocated     0.00E+00 Mbytes, locked:    0 /   0

     iteration #  2     ecut=    90.00 Ry     beta= 0.20
     Davidson diagonalization with overlap

---- Real-time Memory Report at c_bands before calling an iterative solver
         10502 MiB given to the printing process from OS
          2013 MiB allocation reported by mallinfo(arena+hblkhd)
        464858 MiB available memory on the node where the printing process lives
     GPU memory used/free/total (MiB): 31249 / 33719 / 64969
------------------
     ethr =  1.00E-02,  avg # of iterations =  4.0

     negative rho (up, down):  6.897E-02 0.000E+00

     total cpu time spent up to now is       43.0 secs

     total energy              =   -9062.83581123 Ry
     estimated scf accuracy    <      52.42261592 Ry
[tb_dev] Currently allocated     2.41E+01 Mbytes, locked:    0 /   6
[tb_pin] Currently allocated     0.00E+00 Mbytes, locked:    0 /   0

     iteration #  3     ecut=    90.00 Ry     beta= 0.20
     Davidson diagonalization with overlap

---- Real-time Memory Report at c_bands before calling an iterative solver
         10537 MiB given to the printing process from OS
         -2047 MiB allocation reported by mallinfo(arena+hblkhd)
        464716 MiB available memory on the node where the printing process lives
     GPU memory used/free/total (MiB): 31251 / 33717 / 64969
------------------
     ethr =  3.77E-03,  avg # of iterations =  7.0

     negative rho (up, down):  5.157E-02 0.000E+00

     total cpu time spent up to now is       48.7 secs

     total energy              =   -9105.94933560 Ry
     estimated scf accuracy    <     652.09850129 Ry
[tb_dev] Currently allocated     2.41E+01 Mbytes, locked:    0 /   6
[tb_pin] Currently allocated     0.00E+00 Mbytes, locked:    0 /   0

     iteration #  4     ecut=    90.00 Ry     beta= 0.20
     Davidson diagonalization with overlap

---- Real-time Memory Report at c_bands before calling an iterative solver
         10541 MiB given to the printing process from OS
         -2023 MiB allocation reported by mallinfo(arena+hblkhd)
        464466 MiB available memory on the node where the printing process lives
     GPU memory used/free/total (MiB): 31251 / 33717 / 64969
------------------
     ethr =  3.77E-03,  avg # of iterations =  2.0

     negative rho (up, down):  4.277E-02 0.000E+00

     total cpu time spent up to now is       52.1 secs

     total energy              =   -9090.42810085 Ry
     estimated scf accuracy    <     425.75523402 Ry
[tb_dev] Currently allocated     2.41E+01 Mbytes, locked:    0 /   6
[tb_pin] Currently allocated     0.00E+00 Mbytes, locked:    0 /   0

     iteration #  5     ecut=    90.00 Ry     beta= 0.20
     Davidson diagonalization with overlap

---- Real-time Memory Report at c_bands before calling an iterative solver
         10564 MiB given to the printing process from OS
         -2000 MiB allocation reported by mallinfo(arena+hblkhd)
        464419 MiB available memory on the node where the printing process lives
     GPU memory used/free/total (MiB): 31251 / 33717 / 64969
------------------
     ethr =  3.77E-03,  avg # of iterations =  2.0

     negative rho (up, down):  3.657E-02 0.000E+00

     total cpu time spent up to now is       55.5 secs

     total energy              =   -9092.33353501 Ry
     estimated scf accuracy    <      61.43824663 Ry
[tb_dev] Currently allocated     2.41E+01 Mbytes, locked:    0 /   6
[tb_pin] Currently allocated     0.00E+00 Mbytes, locked:    0 /   0

     iteration #  6     ecut=    90.00 Ry     beta= 0.20
     Davidson diagonalization with overlap

---- Real-time Memory Report at c_bands before calling an iterative solver
         10588 MiB given to the printing process from OS
         -1977 MiB allocation reported by mallinfo(arena+hblkhd)
        464278 MiB available memory on the node where the printing process lives
     GPU memory used/free/total (MiB): 31251 / 33717 / 64969
------------------
     ethr =  3.77E-03,  avg # of iterations =  2.0

     negative rho (up, down):  2.474E-02 0.000E+00

     total cpu time spent up to now is       58.9 secs

     total energy              =   -9100.38964986 Ry
     estimated scf accuracy    <       5.12001911 Ry
[tb_dev] Currently allocated     2.41E+01 Mbytes, locked:    0 /   6
[tb_pin] Currently allocated     0.00E+00 Mbytes, locked:    0 /   0

     iteration #  7     ecut=    90.00 Ry     beta= 0.20
     Davidson diagonalization with overlap

---- Real-time Memory Report at c_bands before calling an iterative solver
         10611 MiB given to the printing process from OS
         -1953 MiB allocation reported by mallinfo(arena+hblkhd)
        464136 MiB available memory on the node where the printing process lives
     GPU memory used/free/total (MiB): 31251 / 33717 / 64969
------------------
     ethr =  3.68E-04,  avg # of iterations = 16.0

     negative rho (up, down):  2.974E-02 0.000E+00

     total cpu time spent up to now is       65.1 secs

     total energy              =   -9091.43143683 Ry
     estimated scf accuracy    <     108.39328056 Ry
[tb_dev] Currently allocated     2.41E+01 Mbytes, locked:    0 /   6
[tb_pin] Currently allocated     0.00E+00 Mbytes, locked:    0 /   0

     iteration #  8     ecut=    90.00 Ry     beta= 0.20
     Davidson diagonalization with overlap

---- Real-time Memory Report at c_bands before calling an iterative solver
         10634 MiB given to the printing process from OS
         -1930 MiB allocation reported by mallinfo(arena+hblkhd)
        464042 MiB available memory on the node where the printing process lives
     GPU memory used/free/total (MiB): 31433 / 33535 / 64969
------------------
     ethr =  3.68E-04,  avg # of iterations = 11.0

     negative rho (up, down):  3.409E-02 0.000E+00

     total cpu time spent up to now is       71.2 secs

     total energy              =   -9093.69461855 Ry
     estimated scf accuracy    <      11.73939957 Ry
[tb_dev] Currently allocated     2.41E+01 Mbytes, locked:    0 /   6
[tb_pin] Currently allocated     0.00E+00 Mbytes, locked:    0 /   0

     iteration #  9     ecut=    90.00 Ry     beta= 0.20
     Davidson diagonalization with overlap

---- Real-time Memory Report at c_bands before calling an iterative solver
         10658 MiB given to the printing process from OS
         -1906 MiB allocation reported by mallinfo(arena+hblkhd)
        463948 MiB available memory on the node where the printing process lives
     GPU memory used/free/total (MiB): 31433 / 33535 / 64969
------------------
     ethr =  3.68E-04,  avg # of iterations = 17.0

     negative rho (up, down):  3.379E-02 0.000E+00

     total cpu time spent up to now is       76.5 secs

     total energy              =   -9096.86196771 Ry
     estimated scf accuracy    <      11.20605075 Ry
[tb_dev] Currently allocated     2.41E+01 Mbytes, locked:    0 /   6
[tb_pin] Currently allocated     0.00E+00 Mbytes, locked:    0 /   0

     iteration # 10     ecut=    90.00 Ry     beta= 0.20
     Davidson diagonalization with overlap

---- Real-time Memory Report at c_bands before calling an iterative solver
         10691 MiB given to the printing process from OS
         -1894 MiB allocation reported by mallinfo(arena+hblkhd)
        464008 MiB available memory on the node where the printing process lives
     GPU memory used/free/total (MiB): 31479 / 33489 / 64969
------------------
     ethr =  3.68E-04,  avg # of iterations =  1.0

     negative rho (up, down):  3.099E-02 0.000E+00

     total cpu time spent up to now is       79.9 secs

     total energy              =   -9094.75741460 Ry
     estimated scf accuracy    <       8.34962234 Ry
[tb_dev] Currently allocated     2.41E+01 Mbytes, locked:    0 /   6
[tb_pin] Currently allocated     0.00E+00 Mbytes, locked:    0 /   0

     iteration # 11     ecut=    90.00 Ry     beta= 0.20
     Davidson diagonalization with overlap

---- Real-time Memory Report at c_bands before calling an iterative solver
         10691 MiB given to the printing process from OS
         -1894 MiB allocation reported by mallinfo(arena+hblkhd)
        463818 MiB available memory on the node where the printing process lives
     GPU memory used/free/total (MiB): 31479 / 33489 / 64969
------------------
     ethr =  3.68E-04,  avg # of iterations =  2.0

     negative rho (up, down):  3.215E-02 0.000E+00

     total cpu time spent up to now is       83.5 secs

     total energy              =   -9096.16369797 Ry
     estimated scf accuracy    <       2.70030844 Ry
[tb_dev] Currently allocated     2.41E+01 Mbytes, locked:    0 /   6
[tb_pin] Currently allocated     0.00E+00 Mbytes, locked:    0 /   0

     iteration # 12     ecut=    90.00 Ry     beta= 0.20
     Davidson diagonalization with overlap

---- Real-time Memory Report at c_bands before calling an iterative solver
         10691 MiB given to the printing process from OS
         -1894 MiB allocation reported by mallinfo(arena+hblkhd)
        463817 MiB available memory on the node where the printing process lives
     GPU memory used/free/total (MiB): 31479 / 33489 / 64969
------------------
     ethr =  1.94E-04,  avg # of iterations =  1.0

     negative rho (up, down):  3.233E-02 0.000E+00

     total cpu time spent up to now is       86.9 secs

     total energy              =   -9096.31668847 Ry
     estimated scf accuracy    <       0.93787713 Ry
[tb_dev] Currently allocated     2.41E+01 Mbytes, locked:    0 /   6
[tb_pin] Currently allocated     0.00E+00 Mbytes, locked:    0 /   0

     iteration # 13     ecut=    90.00 Ry     beta= 0.20
     Davidson diagonalization with overlap

---- Real-time Memory Report at c_bands before calling an iterative solver
         10691 MiB given to the printing process from OS
         -1894 MiB allocation reported by mallinfo(arena+hblkhd)
        463818 MiB available memory on the node where the printing process lives
     GPU memory used/free/total (MiB): 31479 / 33489 / 64969
------------------
     ethr =  6.74E-05,  avg # of iterations = 13.0

     negative rho (up, down):  3.642E-02 0.000E+00

     total cpu time spent up to now is       91.0 secs

     total energy              =   -9095.73794195 Ry
     estimated scf accuracy    <       2.31612925 Ry
[tb_dev] Currently allocated     2.41E+01 Mbytes, locked:    0 /   6
[tb_pin] Currently allocated     0.00E+00 Mbytes, locked:    0 /   0

     iteration # 14     ecut=    90.00 Ry     beta= 0.20
     Davidson diagonalization with overlap

---- Real-time Memory Report at c_bands before calling an iterative solver
         10691 MiB given to the printing process from OS
         -1894 MiB allocation reported by mallinfo(arena+hblkhd)
        463817 MiB available memory on the node where the printing process lives
     GPU memory used/free/total (MiB): 31479 / 33489 / 64969
------------------
     c_bands:  1 eigenvalues not converged
     ethr =  6.74E-05,  avg # of iterations = 20.0

     negative rho (up, down):  3.661E-02 0.000E+00

     total cpu time spent up to now is       95.8 secs

     total energy              =   -9096.08445467 Ry
     estimated scf accuracy    <       0.58592025 Ry
[tb_dev] Currently allocated     2.41E+01 Mbytes, locked:    0 /   6
[tb_pin] Currently allocated     0.00E+00 Mbytes, locked:    0 /   0

     iteration # 15     ecut=    90.00 Ry     beta= 0.20
     Davidson diagonalization with overlap

---- Real-time Memory Report at c_bands before calling an iterative solver
         10692 MiB given to the printing process from OS
         -1892 MiB allocation reported by mallinfo(arena+hblkhd)
        463810 MiB available memory on the node where the printing process lives
     GPU memory used/free/total (MiB): 31479 / 33489 / 64969
------------------
     ethr =  4.21E-05,  avg # of iterations =  2.0

     negative rho (up, down):  3.740E-02 0.000E+00

     total cpu time spent up to now is       99.3 secs

     total energy              =   -9096.09888780 Ry
     estimated scf accuracy    <       0.08414719 Ry
[tb_dev] Currently allocated     2.41E+01 Mbytes, locked:    0 /   6
[tb_pin] Currently allocated     0.00E+00 Mbytes, locked:    0 /   0

     iteration # 16     ecut=    90.00 Ry     beta= 0.20
     Davidson diagonalization with overlap

---- Real-time Memory Report at c_bands before calling an iterative solver
         10692 MiB given to the printing process from OS
         -1892 MiB allocation reported by mallinfo(arena+hblkhd)
        463998 MiB available memory on the node where the printing process lives
     GPU memory used/free/total (MiB): 31479 / 33489 / 64969
------------------
     c_bands:  2 eigenvalues not converged
     ethr =  6.05E-06,  avg # of iterations = 40.0

     negative rho (up, down):  3.802E-02 0.000E+00

     total cpu time spent up to now is      106.8 secs

     total energy              =   -9096.11187384 Ry
     estimated scf accuracy    <       0.02600791 Ry
[tb_dev] Currently allocated     2.41E+01 Mbytes, locked:    0 /   6
[tb_pin] Currently allocated     0.00E+00 Mbytes, locked:    0 /   0

     iteration # 17     ecut=    90.00 Ry     beta= 0.20
     Davidson diagonalization with overlap

---- Real-time Memory Report at c_bands before calling an iterative solver
         10693 MiB given to the printing process from OS
         -1892 MiB allocation reported by mallinfo(arena+hblkhd)
        463809 MiB available memory on the node where the printing process lives
     GPU memory used/free/total (MiB): 31479 / 33489 / 64969
------------------
     c_bands:  2 eigenvalues not converged
     ethr =  1.87E-06,  avg # of iterations = 40.0

     negative rho (up, down):  3.835E-02 0.000E+00

     total cpu time spent up to now is      113.3 secs

     total energy              =   -9096.11363479 Ry
     estimated scf accuracy    <       0.00984445 Ry
[tb_dev] Currently allocated     2.41E+01 Mbytes, locked:    0 /   6
[tb_pin] Currently allocated     0.00E+00 Mbytes, locked:    0 /   0

     iteration # 18     ecut=    90.00 Ry     beta= 0.20
     Davidson diagonalization with overlap

---- Real-time Memory Report at c_bands before calling an iterative solver
         10693 MiB given to the printing process from OS
         -1892 MiB allocation reported by mallinfo(arena+hblkhd)
        463809 MiB available memory on the node where the printing process lives
     GPU memory used/free/total (MiB): 31479 / 33489 / 64969
------------------
     ethr =  7.07E-07,  avg # of iterations =  2.0

     negative rho (up, down):  3.895E-02 0.000E+00

     total cpu time spent up to now is      116.8 secs

     total energy              =   -9096.11368186 Ry
     estimated scf accuracy    <       0.00370310 Ry
[tb_dev] Currently allocated     2.41E+01 Mbytes, locked:    0 /   6
[tb_pin] Currently allocated     0.00E+00 Mbytes, locked:    0 /   0

     iteration # 19     ecut=    90.00 Ry     beta= 0.20
     Davidson diagonalization with overlap

---- Real-time Memory Report at c_bands before calling an iterative solver
         10693 MiB given to the printing process from OS
         -1892 MiB allocation reported by mallinfo(arena+hblkhd)
        463810 MiB available memory on the node where the printing process lives
     GPU memory used/free/total (MiB): 31479 / 33489 / 64969
------------------
     ethr =  2.66E-07,  avg # of iterations =  4.0

     negative rho (up, down):  3.941E-02 0.000E+00

     total cpu time spent up to now is      120.7 secs

     total energy              =   -9096.11365724 Ry
     estimated scf accuracy    <       0.00420332 Ry
[tb_dev] Currently allocated     2.41E+01 Mbytes, locked:    0 /   6
[tb_pin] Currently allocated     0.00E+00 Mbytes, locked:    0 /   0

     iteration # 20     ecut=    90.00 Ry     beta= 0.20
     Davidson diagonalization with overlap

---- Real-time Memory Report at c_bands before calling an iterative solver
         10693 MiB given to the printing process from OS
         -1892 MiB allocation reported by mallinfo(arena+hblkhd)
        463810 MiB available memory on the node where the printing process lives
     GPU memory used/free/total (MiB): 31479 / 33489 / 64969
------------------
     ethr =  2.66E-07,  avg # of iterations =  1.0

     negative rho (up, down):  3.968E-02 0.000E+00

     total cpu time spent up to now is      124.2 secs

     total energy              =   -9096.11378191 Ry
     estimated scf accuracy    <       0.00068919 Ry
[tb_dev] Currently allocated     2.41E+01 Mbytes, locked:    0 /   6
[tb_pin] Currently allocated     0.00E+00 Mbytes, locked:    0 /   0

     iteration # 21     ecut=    90.00 Ry     beta= 0.20
     Davidson diagonalization with overlap

---- Real-time Memory Report at c_bands before calling an iterative solver
         10693 MiB given to the printing process from OS
         -1892 MiB allocation reported by mallinfo(arena+hblkhd)
        463810 MiB available memory on the node where the printing process lives
     GPU memory used/free/total (MiB): 31479 / 33489 / 64969
------------------
     ethr =  4.95E-08,  avg # of iterations =  4.0

     negative rho (up, down):  3.981E-02 0.000E+00

     total cpu time spent up to now is      128.1 secs

     total energy              =   -9096.11388575 Ry
     estimated scf accuracy    <       0.00013968 Ry
[tb_dev] Currently allocated     2.41E+01 Mbytes, locked:    0 /   6
[tb_pin] Currently allocated     0.00E+00 Mbytes, locked:    0 /   0

     iteration # 22     ecut=    90.00 Ry     beta= 0.20
     Davidson diagonalization with overlap

---- Real-time Memory Report at c_bands before calling an iterative solver
         10693 MiB given to the printing process from OS
         -1892 MiB allocation reported by mallinfo(arena+hblkhd)
        464000 MiB available memory on the node where the printing process lives
     GPU memory used/free/total (MiB): 31479 / 33489 / 64969
------------------
     ethr =  1.00E-08,  avg # of iterations =  4.0

     negative rho (up, down):  3.988E-02 0.000E+00

     total cpu time spent up to now is      132.1 secs

     total energy              =   -9096.11391223 Ry
     estimated scf accuracy    <       0.00006258 Ry
[tb_dev] Currently allocated     2.41E+01 Mbytes, locked:    0 /   6
[tb_pin] Currently allocated     0.00E+00 Mbytes, locked:    0 /   0

     iteration # 23     ecut=    90.00 Ry     beta= 0.20
     Davidson diagonalization with overlap

---- Real-time Memory Report at c_bands before calling an iterative solver
         10693 MiB given to the printing process from OS
         -1892 MiB allocation reported by mallinfo(arena+hblkhd)
        463810 MiB available memory on the node where the printing process lives
     GPU memory used/free/total (MiB): 31479 / 33489 / 64969
------------------
     ethr =  4.50E-09,  avg # of iterations =  2.0

     negative rho (up, down):  3.994E-02 0.000E+00

     total cpu time spent up to now is      135.6 secs

     total energy              =   -9096.11391283 Ry
     estimated scf accuracy    <       0.00003153 Ry
[tb_dev] Currently allocated     2.41E+01 Mbytes, locked:    0 /   6
[tb_pin] Currently allocated     0.00E+00 Mbytes, locked:    0 /   0

     iteration # 24     ecut=    90.00 Ry     beta= 0.20
     Davidson diagonalization with overlap

---- Real-time Memory Report at c_bands before calling an iterative solver
         10693 MiB given to the printing process from OS
         -1892 MiB allocation reported by mallinfo(arena+hblkhd)
        463810 MiB available memory on the node where the printing process lives
     GPU memory used/free/total (MiB): 31479 / 33489 / 64969
------------------
     ethr =  2.26E-09,  avg # of iterations =  2.0

     negative rho (up, down):  3.999E-02 0.000E+00

     total cpu time spent up to now is      139.4 secs

     total energy              =   -9096.11391737 Ry
     estimated scf accuracy    <       0.00001322 Ry
[tb_dev] Currently allocated     2.41E+01 Mbytes, locked:    0 /   6
[tb_pin] Currently allocated     0.00E+00 Mbytes, locked:    0 /   0

     iteration # 25     ecut=    90.00 Ry     beta= 0.20
     Davidson diagonalization with overlap

---- Real-time Memory Report at c_bands before calling an iterative solver
         10693 MiB given to the printing process from OS
         -1892 MiB allocation reported by mallinfo(arena+hblkhd)
        463810 MiB available memory on the node where the printing process lives
     GPU memory used/free/total (MiB): 31479 / 33489 / 64969
------------------
     ethr =  9.50E-10,  avg # of iterations =  2.0

     negative rho (up, down):  4.001E-02 0.000E+00

     total cpu time spent up to now is      143.1 secs

     total energy              =   -9096.11391860 Ry
     estimated scf accuracy    <       0.00000547 Ry
[tb_dev] Currently allocated     2.41E+01 Mbytes, locked:    0 /   6
[tb_pin] Currently allocated     0.00E+00 Mbytes, locked:    0 /   0

     iteration # 26     ecut=    90.00 Ry     beta= 0.20
     Davidson diagonalization with overlap

---- Real-time Memory Report at c_bands before calling an iterative solver
         10693 MiB given to the printing process from OS
         -1892 MiB allocation reported by mallinfo(arena+hblkhd)
        464000 MiB available memory on the node where the printing process lives
     GPU memory used/free/total (MiB): 31671 / 33297 / 64969
------------------
     ethr =  3.93E-10,  avg # of iterations =  2.0

     negative rho (up, down):  4.003E-02 0.000E+00

     total cpu time spent up to now is      146.6 secs

     total energy              =   -9096.11391868 Ry
     estimated scf accuracy    <       0.00000197 Ry
[tb_dev] Currently allocated     2.41E+01 Mbytes, locked:    0 /   6
[tb_pin] Currently allocated     0.00E+00 Mbytes, locked:    0 /   0

     iteration # 27     ecut=    90.00 Ry     beta= 0.20
     Davidson diagonalization with overlap

---- Real-time Memory Report at c_bands before calling an iterative solver
         10693 MiB given to the printing process from OS
         -1892 MiB allocation reported by mallinfo(arena+hblkhd)
        463810 MiB available memory on the node where the printing process lives
     GPU memory used/free/total (MiB): 31671 / 33297 / 64969
------------------
     ethr =  1.42E-10,  avg # of iterations =  4.0

     negative rho (up, down):  4.004E-02 0.000E+00

     total cpu time spent up to now is      150.8 secs

     total energy              =   -9096.11391926 Ry
     estimated scf accuracy    <       0.00000094 Ry
[tb_dev] Currently allocated     2.41E+01 Mbytes, locked:    0 /   6
[tb_pin] Currently allocated     0.00E+00 Mbytes, locked:    0 /   0

     iteration # 28     ecut=    90.00 Ry     beta= 0.20
     Davidson diagonalization with overlap

---- Real-time Memory Report at c_bands before calling an iterative solver
         10693 MiB given to the printing process from OS
         -1892 MiB allocation reported by mallinfo(arena+hblkhd)
        463810 MiB available memory on the node where the printing process lives
     GPU memory used/free/total (MiB): 31897 / 33071 / 64969
------------------
     ethr =  6.72E-11,  avg # of iterations =  2.0

     negative rho (up, down):  4.004E-02 0.000E+00

     total cpu time spent up to now is      154.3 secs

     total energy              =   -9096.11391930 Ry
     estimated scf accuracy    <       0.00000038 Ry
[tb_dev] Currently allocated     2.41E+01 Mbytes, locked:    0 /   6
[tb_pin] Currently allocated     0.00E+00 Mbytes, locked:    0 /   0

     iteration # 29     ecut=    90.00 Ry     beta= 0.20
     Davidson diagonalization with overlap

---- Real-time Memory Report at c_bands before calling an iterative solver
         10693 MiB given to the printing process from OS
         -1892 MiB allocation reported by mallinfo(arena+hblkhd)
        463810 MiB available memory on the node where the printing process lives
     GPU memory used/free/total (MiB): 31897 / 33071 / 64969
------------------
     ethr =  2.75E-11,  avg # of iterations =  4.0

     negative rho (up, down):  4.005E-02 0.000E+00

     total cpu time spent up to now is      158.2 secs

[...]
     atom  143 type  1   force =    -0.00000069    0.00000036   -0.00004473
     atom  144 type  1   force =     0.00000862    0.00000144   -0.00001058
     atom  145 type  1   force =    -0.00000799    0.00000855   -0.00000280
     atom  146 type  1   force =    -0.00000936   -0.00001314   -0.00000245
     atom  147 type  1   force =    -0.00000869   -0.00000423   -0.00000295
     atom  148 type  1   force =    -0.00000901   -0.00000042   -0.00000987
     atom  149 type  1   force =     0.00000643   -0.00000184   -0.00003978
     atom  150 type  4   force =    -0.00000609   -0.00000269   -0.00003685
     atom  151 type  2   force =     0.00000003   -0.00000149    0.00000069
     atom  152 type  2   force =    -0.00000287   -0.00000071    0.00000014
     atom  153 type  2   force =     0.00000071   -0.00000338    0.00000268
     atom  154 type  2   force =     0.00000287    0.00000608   -0.00000351
     atom  155 type  2   force =     0.00000161    0.00000132    0.00000234
     atom  156 type  2   force =    -0.00000153    0.00000436   -0.00000350
     atom  157 type  2   force =    -0.00000503    0.00000176   -0.00000317
     atom  158 type  2   force =     0.00000279   -0.00000731   -0.00000094
     atom  159 type  2   force =     0.00000128    0.00000261   -0.00000073
     atom  160 type  2   force =    -0.00000735    0.00000532   -0.00000511
     atom  161 type  2   force =     0.00000116   -0.00000130   -0.00000005
     atom  162 type  2   force =     0.00000053    0.00000614   -0.00000176
     atom  163 type  2   force =     0.00000651    0.00000203   -0.00000125
     atom  164 type  2   force =    -0.00000149   -0.00000735   -0.00000308
     atom  165 type  3   force =     0.00001093    0.00000223    0.00000079
     atom  166 type  3   force =    -0.00000216   -0.00000928    0.00000679
     atom  167 type  1   force =    -0.00000378   -0.00000076    0.00000411
     atom  168 type  1   force =     0.00000194    0.00000217    0.00003168
     atom  169 type  1   force =     0.00000260   -0.00000567    0.00000796
     atom  170 type  1   force =    -0.00000559    0.00000237    0.00000913
     atom  171 type  1   force =    -0.00000614   -0.00000441    0.00001100
     atom  172 type  1   force =    -0.00000444   -0.00001222    0.00001157
     atom  173 type  1   force =    -0.00000342   -0.00000239    0.00000795
     atom  174 type  1   force =    -0.00000172   -0.00000362    0.00002967
     atom  175 type  4   force =    -0.00000679   -0.00000522    0.00003303
     atom  176 type  2   force =     0.00000185    0.00000352    0.00000343
     atom  177 type  2   force =     0.00000352    0.00000078    0.00000243
     atom  178 type  2   force =     0.00000176    0.00000077   -0.00000072
     atom  179 type  2   force =    -0.00000268    0.00000320    0.00000115
     atom  180 type  2   force =    -0.00000091   -0.00000036   -0.00000016
     atom  181 type  2   force =     0.00000630   -0.00000290    0.00000082
     atom  182 type  2   force =     0.00000368    0.00000254   -0.00000220
     atom  183 type  2   force =     0.00000222    0.00000469    0.00000055
     atom  184 type  2   force =     0.00000279    0.00000034   -0.00000392
     atom  185 type  2   force =     0.00000345   -0.00000005   -0.00000588
     atom  186 type  2   force =    -0.00000222   -0.00000273    0.00000111
     atom  187 type  2   force =     0.00000266   -0.00000285   -0.00000741
     atom  188 type  2   force =    -0.00001076   -0.00000020   -0.00000160
     atom  189 type  2   force =     0.00000757   -0.00000317    0.00000093
     atom  190 type  3   force =     0.00001245   -0.00001699   -0.00000088
     atom  191 type  3   force =    -0.00000572   -0.00000509    0.00000354
     atom  192 type  1   force =     0.00000399   -0.00001839   -0.00000324
     atom  193 type  1   force =     0.00000330   -0.00000496   -0.00005073
     atom  194 type  1   force =    -0.00000294   -0.00000351   -0.00000554
     atom  195 type  1   force =    -0.00000415    0.00000578   -0.00000751
     atom  196 type  1   force =    -0.00000809   -0.00000698    0.00000140
     atom  197 type  1   force =    -0.00000982   -0.00001979   -0.00000109
     atom  198 type  1   force =    -0.00002069    0.00001161   -0.00000168
     atom  199 type  1   force =     0.00000362   -0.00000120   -0.00003725
     atom  200 type  4   force =    -0.00000718   -0.00000804   -0.00002711
     atom  201 type  2   force =    -0.00000270   -0.00000227   -0.00000358
     atom  202 type  2   force =    -0.00000957   -0.00000016   -0.00000001
     atom  203 type  2   force =    -0.00000296    0.00000077    0.00000099
     atom  204 type  2   force =     0.00000108   -0.00000227    0.00000302
     atom  205 type  2   force =    -0.00000140    0.00000412    0.00000495
     atom  206 type  2   force =    -0.00000271   -0.00000282    0.00000553
     atom  207 type  2   force =    -0.00000553   -0.00000078    0.00000002
     atom  208 type  2   force =    -0.00000124   -0.00000367    0.00000429
     atom  209 type  2   force =    -0.00000290    0.00000150    0.00000503
     atom  210 type  2   force =    -0.00000440    0.00000006   -0.00000206
     atom  211 type  2   force =    -0.00000260   -0.00000320    0.00000013
     atom  212 type  2   force =     0.00000175   -0.00000155   -0.00000025
     atom  213 type  2   force =    -0.00000026    0.00000482    0.00000114
     atom  214 type  2   force =    -0.00000352    0.00000583   -0.00000265
     atom  215 type  3   force =     0.00000625    0.00000243   -0.00000411
     atom  216 type  3   force =    -0.00000309   -0.00001834   -0.00001351
     atom  217 type  1   force =     0.00000191    0.00000222    0.00001325
     atom  218 type  1   force =     0.00000281    0.00000154    0.00003388
     atom  219 type  1   force =     0.00001180   -0.00000559    0.00000969
     atom  220 type  1   force =    -0.00000501    0.00001062    0.00000607
     atom  221 type  1   force =    -0.00000430   -0.00000763    0.00000002
     atom  222 type  1   force =     0.00000199    0.00000181    0.00001093
     atom  223 type  1   force =     0.00000220   -0.00000836    0.00001011
     atom  224 type  1   force =    -0.00000324    0.00000044    0.00001534
     atom  225 type  4   force =    -0.00000394    0.00000619    0.00002286
     atom  226 type  2   force =    -0.00000102    0.00000193    0.00000267
     atom  227 type  2   force =    -0.00000338   -0.00000248    0.00000343
     atom  228 type  2   force =     0.00000125    0.00000326    0.00000170
     atom  229 type  2   force =     0.00001122    0.00000865    0.00000135
     atom  230 type  2   force =    -0.00000042    0.00000207   -0.00000137
     atom  231 type  2   force =    -0.00000116   -0.00000098   -0.00000672
     atom  232 type  2   force =     0.00000542   -0.00000063   -0.00000360
     atom  233 type  2   force =     0.00000050    0.00000574    0.00000371
     atom  234 type  2   force =    -0.00000374   -0.00000681   -0.00000003
     atom  235 type  2   force =    -0.00000064    0.00000451   -0.00000541
     atom  236 type  2   force =     0.00000419    0.00000801    0.00000082
     atom  237 type  2   force =     0.00000433   -0.00000096   -0.00001194
     atom  238 type  2   force =     0.00000270    0.00000771   -0.00000097
     atom  239 type  2   force =    -0.00000160    0.00000419   -0.00000746
     atom  240 type  3   force =    -0.00005061    0.00004578   -0.00004485
     atom  241 type  3   force =    -0.00001990   -0.00000125   -0.00001359
     atom  242 type  1   force =     0.00005884    0.00001718   -0.00000330
     atom  243 type  1   force =     0.00000235    0.00000601   -0.00008139
     atom  244 type  1   force =     0.00000194   -0.00000038   -0.00000468
     atom  245 type  1   force =    -0.00000212    0.00000601   -0.00001118
     atom  246 type  1   force =    -0.00000522   -0.00000081   -0.00001269
     atom  247 type  1   force =    -0.00004677   -0.00003299    0.00000566
     atom  248 type  1   force =    -0.00002976    0.00002742    0.00000418
     atom  249 type  1   force =    -0.00000364   -0.00000490   -0.00004667
     atom  250 type  4   force =    -0.00000306    0.00000662   -0.00004125
     atom  251 type  2   force =    -0.00000069   -0.00000142    0.00000051
     atom  252 type  2   force =    -0.00000133   -0.00000132   -0.00000012
     atom  253 type  2   force =     0.00000239   -0.00000471    0.00000092
     atom  254 type  2   force =     0.00000284    0.00000174    0.00000511
     atom  255 type  2   force =     0.00000175    0.00000112    0.00000255
     atom  256 type  2   force =    -0.00000228   -0.00000031    0.00000265
     atom  257 type  2   force =    -0.00000192   -0.00000255    0.00000154
     atom  258 type  2   force =     0.00000021   -0.00000330    0.00000106
     atom  259 type  2   force =     0.00000170    0.00000267    0.00000193
     atom  260 type  2   force =    -0.00000261   -0.00000067   -0.00000151
     atom  261 type  2   force =     0.00000105    0.00000097   -0.00000298
     atom  262 type  2   force =     0.00000398   -0.00000284   -0.00000253
     atom  263 type  2   force =    -0.00000186   -0.00000344    0.00000081
     atom  264 type  2   force =    -0.00000125   -0.00000610   -0.00000412
     atom  265 type  3   force =    -0.00000293    0.00000335   -0.00000286
     atom  266 type  3   force =    -0.00000384   -0.00002166   -0.00000415
     atom  267 type  1   force =    -0.00000141    0.00000661    0.00001036
     atom  268 type  1   force =    -0.00000111   -0.00000152    0.00004238
     atom  269 type  1   force =     0.00001472   -0.00000023    0.00001122
     atom  270 type  1   force =    -0.00000722    0.00001519    0.00001065
     atom  271 type  1   force =    -0.00000537   -0.00001067    0.00000202
     atom  272 type  1   force =     0.00001045    0.00000710    0.00000174
     atom  273 type  1   force =     0.00000405   -0.00001252    0.00000597
     atom  274 type  1   force =    -0.00000110   -0.00000194    0.00001745
     atom  275 type  4   force =    -0.00000184   -0.00000339    0.00003135
     atom  276 type  2   force =    -0.00000595   -0.00000276    0.00000216
     atom  277 type  2   force =    -0.00000152   -0.00000533    0.00000287
     atom  278 type  2   force =     0.00000269   -0.00000259    0.00000477
     atom  279 type  2   force =     0.00000820    0.00000152    0.00000168
     atom  280 type  2   force =     0.00000960    0.00000006   -0.00000310
     atom  281 type  2   force =     0.00000304   -0.00000690    0.00000465
     atom  282 type  2   force =     0.00000352   -0.00000229   -0.00000203
     atom  283 type  2   force =     0.00000095    0.00000106   -0.00000037
     atom  284 type  2   force =    -0.00000558    0.00000048   -0.00000112
     atom  285 type  2   force =     0.00000026   -0.00000149   -0.00000411
     atom  286 type  2   force =     0.00000392    0.00001054    0.00000076
     atom  287 type  2   force =     0.00000624   -0.00000338   -0.00001129
     atom  288 type  2   force =     0.00000842   -0.00000186    0.00000081
     atom  289 type  2   force =     0.00000788    0.00000530   -0.00000232
     atom  290 type  3   force =    -0.00000987    0.00004779   -0.00001393
     atom  291 type  3   force =    -0.00001428   -0.00000501    0.00002285
     atom  292 type  1   force =    -0.00002507    0.00001394   -0.00001384
     atom  293 type  1   force =     0.00000010    0.00000158   -0.00000950
     atom  294 type  1   force =     0.00000111   -0.00000281   -0.00000829
     atom  295 type  1   force =    -0.00000018   -0.00000040   -0.00000642
     atom  296 type  1   force =    -0.00000423   -0.00000102   -0.00000880
     atom  297 type  1   force =     0.00000568    0.00000619   -0.00002253
     atom  298 type  1   force =     0.00002674   -0.00004408   -0.00001992
     atom  299 type  1   force =    -0.00000232   -0.00000236   -0.00004668
     atom  300 type  4   force =    -0.00000416    0.00000157   -0.00002805

     Total force =     1.034897     Total SCF correction =     0.000334


     Computing stress (Cartesian axis) and pressure


     negative rho (up, down):  4.008E-02 0.000E+00
          total   stress  (Ry/bohr**3)                   (kbar)     P=        3.58
   0.00002782  -0.00000471   0.00000821            4.09       -0.69        1.21
  -0.00000471   0.00004359   0.00000047           -0.69        6.41        0.07
   0.00000821   0.00000047   0.00000158            1.21        0.07        0.23

     kinetic stress (kbar)   5330.85     -0.01      2.51
                               -0.01   5335.36      0.60
                                2.51      0.60   5328.58

     local   stress (kbar)-649201.82     33.02    235.53
                               33.02-649174.56    -22.07
                              235.53    -22.07 642732.19

     nonloc. stress (kbar)    957.24      0.21      0.31
                                0.21    958.28      0.20
                                0.31      0.20    953.75

     hartree stress (kbar) 325248.96     -8.41    -93.88
                               -8.41 325232.21      5.09
                              -93.88      5.09-319346.53

     exc-cor stress (kbar)  -1264.15     -0.11     -0.22
                               -0.11  -1264.05      0.10
                               -0.22      0.10  -1265.54

     corecor stress (kbar)   -292.83      0.00     -0.00
                                0.00   -292.86     -0.01
                               -0.00     -0.01   -292.78

     ewald   stress (kbar) 319225.84    -25.40   -143.03
                              -25.40 319212.04     16.16
                             -143.03     16.16-328109.44

     hubbard stress (kbar)      0.00      0.00      0.00
                                0.00      0.00      0.00
                                0.00      0.00      0.00

     DFT-D   stress (kbar)      0.00      0.00      0.00
                                0.00      0.00      0.00
                                0.00      0.00      0.00

     XDM     stress (kbar)      0.00      0.00      0.00
                                0.00      0.00      0.00
                                0.00      0.00      0.00

     dft-nl  stress (kbar)      0.00      0.00      0.00
                                0.00      0.00      0.00
                                0.00      0.00      0.00

     TS-vdW  stress (kbar)      0.00      0.00      0.00
                                0.00      0.00      0.00
                                0.00      0.00      0.00

     MDB     stress (kbar)      0.00      0.00      0.00
                                0.00      0.00      0.00
                                0.00      0.00      0.00

     3D-RISM stress (kbar)      0.00      0.00      0.00
                                0.00      0.00      0.00
                                0.00      0.00      0.00


     Writing all to output data dir ./tmp/pwscf.save/
 
     init_run     :     29.20s CPU     34.79s WALL (       1 calls)
     electrons    :    123.21s CPU    130.67s WALL (       1 calls)
     forces       :      4.16s CPU      4.39s WALL (       1 calls)
     stress       :     80.88s CPU     83.34s WALL (       1 calls)

     Called by init_run:
     wfcinit      :      3.48s CPU      5.40s WALL (       1 calls)
                                        5.40s GPU  (       1 calls)
     wfcinit:atom :      0.01s CPU      0.01s WALL (       1 calls)
                                        0.01s GPU  (       1 calls)
     wfcinit:wfcr :      1.25s CPU      2.42s WALL (       1 calls)
                                        2.42s GPU  (       1 calls)
     potinit      :     16.19s CPU     16.52s WALL (       1 calls)
     hinit0       :      7.18s CPU      7.49s WALL (       1 calls)

     Called by electrons:
     c_bands      :     78.64s CPU     80.57s WALL (      31 calls)
     sum_band     :     16.96s CPU     17.47s WALL (      31 calls)
     v_of_rho     :      3.41s CPU      3.59s WALL (      32 calls)
     v_h          :      1.87s CPU      1.96s WALL (      32 calls)
     v_xc         :      1.67s CPU      1.76s WALL (      34 calls)
     newd         :      2.59s CPU      5.78s WALL (      32 calls)
                                        5.78s GPU  (      32 calls)
     PAW_pot      :      3.47s CPU      3.49s WALL (      32 calls)
     mix_rho      :      8.68s CPU      8.99s WALL (      31 calls)

     Called by c_bands:
     init_us_2    :      0.49s CPU      0.65s WALL (      63 calls)
     init_us_2:gp :      0.49s CPU      0.65s WALL (      63 calls)
     regterg      :     68.83s CPU     70.55s WALL (      33 calls)

     Called by sum_band:
     sum_band:wei :      0.01s CPU      0.01s WALL (      31 calls)
                                        0.01s GPU  (      31 calls)
     sum_band:loo :     13.33s CPU     13.74s WALL (      31 calls)
                                       13.74s GPU  (      31 calls)
     sum_band:buf :      2.00s CPU      2.03s WALL (      31 calls)
                                        2.03s GPU  (      31 calls)
     sum_band:ini :      0.25s CPU      0.47s WALL (      31 calls)
                                        0.47s GPU  (      31 calls)
     sum_band:cal :      2.18s CPU      2.26s WALL (      31 calls)
                                        2.25s GPU  (      31 calls)
     sum_band:bec :      0.21s CPU      0.22s WALL (      31 calls)
                                        0.22s GPU  (      31 calls)
     addusdens    :      2.20s CPU      2.29s WALL (      31 calls)
                                        2.29s GPU  (      31 calls)
     addusd:skk   :      0.47s CPU      0.50s WALL (     124 calls)
                                        0.50s GPU  (     124 calls)

     Called by *egterg:
     rdiaghg      :      6.34s CPU      6.47s WALL (     257 calls)
                                        6.46s GPU  (     257 calls)
     regterg:over :      4.28s CPU      4.38s WALL (     224 calls)
     regterg:upda :      2.33s CPU      2.37s WALL (     224 calls)
     regterg:last :      4.74s CPU      4.75s WALL (      73 calls)
     h_psi        :     44.12s CPU     46.47s WALL (     258 calls)
                                       46.47s GPU  (     258 calls)
     s_psi        :      1.17s CPU      5.51s WALL (     258 calls)
                                        5.35s GPU  (     258 calls)
     g_psi        :      0.00s CPU      0.23s WALL (     224 calls)
                                        0.22s GPU  (     224 calls)

     Called by h_psi:
     h_psi:calbec :      6.36s CPU      6.63s WALL (     258 calls)
                                        6.63s GPU  (     258 calls)
     vloc_psi     :     32.75s CPU     34.12s WALL (     258 calls)
                                       34.11s GPU  (     258 calls)
     add_vuspsi   :      0.50s CPU      5.50s WALL (     258 calls)
                                        5.49s GPU  (     258 calls)

     General routines
     calbec       :      8.93s CPU      9.43s WALL (     294 calls)
     fft          :      6.01s CPU      8.05s WALL (     370 calls)
                                        0.83s GPU  (     338 calls)
     ffts         :      3.13s CPU      3.67s WALL (      63 calls)
                                        0.07s GPU  (      31 calls)
     fftw         :     19.63s CPU     33.00s WALL (   17760 calls)
                                       32.77s GPU  (   17760 calls)
     interpolate  :      9.76s CPU     12.12s WALL (      32 calls)
 
     Parallel routines

     PAW routines
     PAW_pot      :      3.47s CPU      3.49s WALL (      32 calls)
 
     PWSCF        :   3m59.80s CPU   4m20.73s WALL

 
   This run was terminated on:  14:25:23  30Dec2023            

=------------------------------------------------------------------------------=
   JOB DONE.
=------------------------------------------------------------------------------=
