
     Program PWSCF v.7.2 starts on 30Dec2023 at 13:34:37 

     This program is part of the open-source Quantum ESPRESSO suite
     for quantum simulation of materials; please cite
         "P. Giannozzi et al., J. Phys.:Condens. Matter 21 395502 (2009);
         "P. Giannozzi et al., J. Phys.:Condens. Matter 29 465901 (2017);
         "P. Giannozzi et al., J. Chem. Phys. 152 154105 (2020);
          URL http://www.quantum-espresso.org", 
     in publications or presentations arising from this work. More details at
     http://www.quantum-espresso.org/quote

     Parallel version (MPI & OpenMP), running on       4 processor cores
     Number of MPI processes:                 4
     Threads/MPI process:                     1

     MPI processes distributed on     1 nodes
     503992 MiB available memory on the printing compute node when the environment starts
 
     Reading input from input_0003.inp

     Current dimensions of program PWSCF are:
     Max number of different atomic species (ntypx) = 10
     Max number of k-points (npk) =  40000
     Max angular momentum in pseudopotentials (lmaxx) =  4
     file O.pbe-n-kjpaw_psl.0.1.UPF: wavefunction(s)  2P renormalized

     gamma-point specific algorithms are used
 
     R & G space division:  proc/nbgrp/npool/nimage =       4
     Subspace diagonalization in iterative solution of the eigenvalue problem:
     a serial algorithm will be used

 
     Parallelization info
     --------------------
     sticks:   dense  smooth     PW     G-vecs:    dense   smooth      PW
     Min        6485    4324   1079              2728975  1485363  185656
     Max        6486    4326   1080              2728990  1485382  185664
     Sum       25943   17301   4319             10915929  5941483  742635
 
     Using Slab Decomposition
 


     bravais-lattice index     =            0
     lattice parameter (alat)  =      32.3352  a.u.
     unit-cell volume          =   51510.8153 (a.u.)^3
     number of atoms/cell      =          300
     number of atomic types    =            4
     number of electrons       =      1392.00
     number of Kohn-Sham states=          835
     kinetic-energy cutoff     =      90.0000  Ry
     charge density cutoff     =     540.0000  Ry
     scf convergence threshold =      1.0E-07
     mixing beta               =       0.2000
     number of iterations used =            8  plain     mixing
     Exchange-correlation= SLA  PW   PBX  PBC
                           (   1   4   3   4   0   0   0)

     GPU acceleration is ACTIVE.
     GPU-aware MPI enabled


     GPU used by master process:

        Device Number: 0
        Device name: NVIDIA PG506-243
        Compute capability : 80
        Ratio of single to double precision performance  : 2
        Memory Clock Rate (KHz): 1593000
        Memory Bus Width (bits): 4096
        Peak Memory Bandwidth (GB/s): ******

     celldm(1)=  32.335181  celldm(2)=   0.000000  celldm(3)=   0.000000
     celldm(4)=   0.000000  celldm(5)=   0.000000  celldm(6)=   0.000000

     crystal axes: (cart. coord. in units of alat)
               a(1) = (   1.000000   0.000000   0.000000 )  
               a(2) = (  -0.333333   0.577350   0.000000 )  
               a(3) = (   0.000000  -0.000000   2.638962 )  

     reciprocal axes: (cart. coord. in units 2 pi/alat)
               b(1) = (  1.000000  0.577350  0.000000 )  
               b(2) = ( -0.000000  1.732051  0.000000 )  
               b(3) = (  0.000000 -0.000000  0.378937 )  


     PseudoPot. # 1 for N  read from file:
     /leonardo_scratch/large/userexternal/uraucci0/Li_Cr/PPS/N.pbe-n-radius_5.UPF
     MD5 check sum: 16739722b17309cd8fe442a2ace49922
     Pseudo is Ultrasoft + core correction, Zval =  5.0
     Generated using "atomic" code by A. Dal Corso  v.5.1
     Using radial grid of 1085 points,  4 beta functions with: 
                l(1) =   0
                l(2) =   0
                l(3) =   1
                l(4) =   1
     Q(r) pseudized with 0 coefficients 


     PseudoPot. # 2 for Li read from file:
     /leonardo_scratch/large/userexternal/uraucci0/Li_Cr/PPS/li_pbe_v1.4.uspp.F.UPF
     MD5 check sum: e912e257baa3777c20ea3d68f190483c
     Pseudo is Ultrasoft, Zval =  3.0
     Generated by new atomic code, or converted to UPF format
     Using radial grid of  751 points,  5 beta functions with: 
                l(1) =   0
                l(2) =   0
                l(3) =   0
                l(4) =   1
                l(5) =   1
     Q(r) pseudized with 10 coefficients,  rinner =    1.150   1.150   1.150


     PseudoPot. # 3 for Cr read from file:
     /leonardo_scratch/large/userexternal/uraucci0/Li_Cr/PPS/cr_pbe_v1.5.uspp.F.UPF
     MD5 check sum: 0d52af634a40206e4dee301ad30da4bf
     Pseudo is Ultrasoft + core correction, Zval = 14.0
     Generated by new atomic code, or converted to UPF format
     Using radial grid of  857 points,  6 beta functions with: 
                l(1) =   0
                l(2) =   0
                l(3) =   1
                l(4) =   1
                l(5) =   2
                l(6) =   2
     Q(r) pseudized with  8 coefficients,  rinner =    0.950   0.950   0.950
                                                       0.950   0.950

     PseudoPot. # 4 for O  read from file:
     /leonardo_scratch/large/userexternal/uraucci0/Li_Cr/PPS/O.pbe-n-kjpaw_psl.0.1.UPF
     MD5 check sum: 0234752ac141de4415c5fc33072bef88
     Pseudo is Projector augmented-wave + core cor, Zval =  6.0
     Generated using "atomic" code by A. Dal Corso  v.5.0.99 svn rev. 10869
     Shape of augmentation charge: BESSEL
     Using radial grid of 1095 points,  4 beta functions with: 
                l(1) =   0
                l(2) =   0
                l(3) =   1
                l(4) =   1
     Q(r) pseudized with 0 coefficients 


     atomic species   valence    mass     pseudopotential
        N              5.00    14.00674     N ( 1.00)
        Li             3.00     6.94100     Li( 1.00)
        Cr            14.00    51.99610     Cr( 1.00)
        O              6.00    15.99940     O ( 1.00)

     No symmetry found


                                    s                        frac. trans.

      isym =  1     identity                                     

 cryst.   s( 1) = (     1          0          0      )
                  (     0          1          0      )
                  (     0          0          1      )

 cart.    s( 1) = (  1.0000000  0.0000000  0.0000000 )
                  (  0.0000000  1.0000000  0.0000000 )
                  (  0.0000000  0.0000000  1.0000000 )


   Cartesian axes

     site n.     atom                  positions (alat units)
         1           Li  tau(   1) = (   0.2593273   0.0873080   0.8766270  )
         2           Li  tau(   2) = (   0.1280588   0.1809300   0.8766270  )
         3           Li  tau(   3) = (   0.1126144   0.0204373   0.8766270  )
         4           Li  tau(   4) = (   0.9052518   0.1943640   1.2683273  )
         5           Li  tau(   5) = (   0.0209381   0.1002446   1.2973670  )
         6           Li  tau(   6) = (   0.0599689   0.2625854   1.2857254  )
         7           Li  tau(   7) = (   0.0669942   0.0904568   1.0336250  )
         8           Li  tau(   8) = (   0.2214985   0.0127904   1.0336250  )
         9           Li  tau(   9) = (   0.2115073   0.1854282   1.0336250  )
        10           Li  tau(  10) = (   0.0791185   0.1822063   1.1139474  )
        11           Li  tau(  11) = (  -0.0693149   0.2786195   1.1156305  )
        12           Li  tau(  12) = (  -0.0274246   0.0986153   1.1136260  )
        13           Li  tau(  13) = (   0.0000000   0.0000000   0.9626942  )
        14           Li  tau(  14) = (  -0.3295738   0.5830849   1.1972620  )
        15           Cr  tau(  15) = (   0.1624226   0.0948247   1.2132751  )
        16           Cr  tau(  16) = (  -0.0000000   0.1924500   0.9478909  )
        17           N   tau(  17) = (   0.2553749   0.0910038   1.2476038  )
        18           N   tau(  18) = (   0.1588343   0.0997859   1.1131818  )
        19           N   tau(  19) = (  -0.0969339   0.1982778   0.9168466  )
        20           N   tau(  20) = (   0.0434200   0.1055885   0.9168466  )
        21           N   tau(  21) = (   0.0535141   0.2734837   0.9168466  )
        22           N   tau(  22) = (   0.1149650   0.0190417   1.2570714  )
        23           N   tau(  23) = (   0.1212889   0.1902561   1.2351849  )
        24           N   tau(  24) = (  -0.0000000   0.1924500   1.0497374  )
        25           O   tau(  25) = (  -0.0131855   0.0006969   1.0754752  )
        26           Li  tau(  26) = (   0.2700759   0.0685359   1.3569543  )
        27           Li  tau(  27) = (   0.1181442   0.1700545   1.3607588  )
        28           Li  tau(  28) = (   0.1164646   0.0229723   1.3860875  )
        29           Li  tau(  29) = (  -0.1120394   0.1906085   1.7789800  )
        30           Li  tau(  30) = (   0.0368677   0.0931048   1.7981255  )
        31           Li  tau(  31) = (   0.0540509   0.2707684   1.7667890  )
        32           Li  tau(  32) = (   0.0528480   0.1007040   1.5433777  )
        33           Li  tau(  33) = (   0.1901848   0.0117254   1.5198958  )
        34           Li  tau(  34) = (   0.2059454   0.1419265   1.5239458  )
        35           Li  tau(  35) = (   0.0961584   0.1893491   1.6268969  )
        36           Li  tau(  36) = (  -0.0518874   0.2675091   1.6207956  )
        37           Li  tau(  37) = (   0.9352207   0.0951462   1.6251787  )
        38           Li  tau(  38) = (  -0.3389192   0.5746985   1.4673683  )
        39           Li  tau(  39) = (   0.6478039   0.5699782   1.6956888  )
        40           Cr  tau(  40) = (   0.1643623   0.0809209   1.7154655  )
        41           Cr  tau(  41) = (  -0.0071640   0.1893573   1.4400351  )
        42           N   tau(  42) = (   0.2669785   0.0807818   1.7470474  )
        43           N   tau(  43) = (   0.1620737   0.0781004   1.6122222  )
        44           N   tau(  44) = (  -0.0931866   0.1848467   1.3919317  )
        45           N   tau(  45) = (   0.0417509   0.0946027   1.4222922  )
        46           N   tau(  46) = (   0.0356589   0.2800513   1.4163545  )
        47           N   tau(  47) = (   0.1113626   0.0001255   1.7489468  )
        48           N   tau(  48) = (   0.1246593   0.1744879   1.7521494  )
        49           N   tau(  49) = (  -0.0172889   0.1876309   1.5470187  )
        50           O   tau(  50) = (   0.9795313   0.0004194   1.5726279  )
        51           Li  tau(  51) = (   0.0926606   0.3759836   0.8766270  )
        52           Li  tau(  52) = (  -0.0386079   0.4696050   0.8766270  )
        53           Li  tau(  53) = (  -0.0540524   0.3091127   0.8766270  )
        54           Li  tau(  54) = (  -0.2480282   0.4848174   1.2774325  )
        55           Li  tau(  55) = (  -0.1267708   0.3786105   1.2757844  )
        56           Li  tau(  56) = (  -0.1194913   0.5537319   1.2888988  )
        57           Li  tau(  57) = (  -0.0996725   0.3791318   1.0336250  )
        58           Li  tau(  58) = (   0.0548319   0.3014656   1.0336250  )
        59           Li  tau(  59) = (   0.0448406   0.4741032   1.0336250  )
        60           Li  tau(  60) = (  -0.0659644   0.4801508   1.1199669  )
        61           Li  tau(  61) = (  -0.2168541   0.5607455   1.1121240  )
        62           Li  tau(  62) = (  -0.2255555   0.3766954   1.1223923  )
        63           Li  tau(  63) = (  -0.1666667   0.2886750   0.9626942  )
        64           Li  tau(  64) = (  -0.1769419   0.2725334   1.1907633  )
        65           Cr  tau(  65) = (  -0.0078962   0.3777111   1.2031062  )
        66           Cr  tau(  66) = (  -0.1666667   0.4811250   0.9478909  )
        67           N   tau(  67) = (   0.0829874   0.3791663   1.2442376  )
        68           N   tau(  68) = (   0.0018448   0.3748247   1.1033811  )
        69           N   tau(  69) = (  -0.2636006   0.4869528   0.9168466  )
        70           N   tau(  70) = (  -0.1232467   0.3942641   0.9168466  )
        71           N   tau(  71) = (  -0.1131527   0.5621587   0.9168466  )
        72           N   tau(  72) = (  -0.0598380   0.3016427   1.2356115  )
        73           N   tau(  73) = (  -0.0576007   0.4685080   1.2296505  )
        74           N   tau(  74) = (  -0.1666667   0.4811250   1.0497374  )
        75           O   tau(  75) = (   0.8260573   0.2958347   1.0831427  )
        76           Li  tau(  76) = (   0.0961911   0.3652349   1.3568140  )
        77           Li  tau(  77) = (  -0.0349225   0.4554539   1.3554991  )
        78           Li  tau(  78) = (  -0.0596895   0.3029547   1.3651478  )
        79           Li  tau(  79) = (  -0.2780041   0.4699772   1.7803359  )
        80           Li  tau(  80) = (  -0.1422678   0.3862874   1.7681332  )
        81           Li  tau(  81) = (  -0.1150135   0.5364758   1.7832053  )
        82           Li  tau(  82) = (  -0.1166773   0.3855873   1.5301056  )
        83           Li  tau(  83) = (   0.0496271   0.3063314   1.5330043  )
        84           Li  tau(  84) = (   0.0025794   0.3914134   1.4652060  )
        85           Li  tau(  85) = (  -0.0764273   0.4954018   1.6027663  )
        86           Li  tau(  86) = (  -0.2137217   0.5471152   1.6392749  )
        87           Li  tau(  87) = (   0.7825298   0.4016459   1.6194748  )
        88           Li  tau(  88) = (  -0.1583632   0.2891104   1.4387260  )
        89           Li  tau(  89) = (   0.8332865   0.2955998   1.6907270  )
        90           Cr  tau(  90) = (  -0.0126826   0.3770618   1.7049868  )
        91           Cr  tau(  91) = (  -0.1726324   0.4691772   1.4409877  )
        92           N   tau(  92) = (   0.0931954   0.3675165   1.7305376  )
        93           N   tau(  93) = (  -0.0135818   0.3939369   1.6005104  )
        94           N   tau(  94) = (   0.7368283   0.4772801   1.4119421  )
        95           N   tau(  95) = (  -0.1086719   0.3910288   1.4159922  )
        96           N   tau(  96) = (  -0.1198583   0.5508782   1.4109486  )
        97           N   tau(  97) = (  -0.0667738   0.2918367   1.7389707  )
        98           N   tau(  98) = (  -0.0531105   0.4604103   1.7426993  )
        99           N   tau(  99) = (  -0.1815874   0.4733143   1.5390823  )
       100           O   tau( 100) = (  -0.1824547   0.2877242   1.5693434  )
       101           Li  tau( 101) = (   0.5926583   0.0873080   0.8766270  )
       102           Li  tau( 102) = (   0.4613921   0.1809300   0.8766270  )
       103           Li  tau( 103) = (   0.4459477   0.0204373   0.8766270  )
       104           Li  tau( 104) = (   0.2280165   0.2062610   1.2743000  )
       105           Li  tau( 105) = (   0.3547721   0.1114847   1.2491876  )
       106           Li  tau( 106) = (   0.3828832   0.2692414   1.2829377  )
       107           Li  tau( 107) = (   0.4003275   0.0904568   1.0336250  )
       108           Li  tau( 108) = (   0.5548318   0.0127904   1.0336250  )
       109           Li  tau( 109) = (   0.5448406   0.1854282   1.0336250  )
       110           Li  tau( 110) = (   0.4367519   0.1862458   1.1111130  )
       111           Li  tau( 111) = (   0.2965132   0.2745444   1.1290196  )
       112           Li  tau( 112) = (   0.2708316   0.1153816   1.1255656  )
       113           Li  tau( 113) = (   0.3333333   0.0000000   0.9626942  )
       114           Li  tau( 114) = (  -0.0083394   0.5556430   1.1973555  )
       115           Cr  tau( 115) = (   0.4948816   0.0900758   1.2002250  )
       116           Cr  tau( 116) = (   0.3333333   0.1924500   0.9478909  )
       117           N   tau( 117) = (   0.5923836   0.0794505   1.2335076  )
       118           N   tau( 118) = (   0.4909941   0.0925286   1.0968999  )
       119           N   tau( 119) = (   0.2363994   0.1982778   0.9168466  )
       120           N   tau( 120) = (   0.3767532   0.1055885   0.9168466  )
       121           N   tau( 121) = (   0.3868473   0.2734837   0.9168466  )
       122           N   tau( 122) = (   0.4326101   0.0167148   1.2416837  )
       123           N   tau( 123) = (   0.4583070   0.1850162   1.2345245  )
       124           N   tau( 124) = (   0.3333333   0.1924500   1.0497374  )
       125           O   tau( 125) = (  -0.0037956   0.5753092   1.0839960  )
       126           Li  tau( 126) = (   0.5938914   0.0873494   1.3693907  )
       127           Li  tau( 127) = (   0.4457391   0.1652272   1.3607121  )
       128           Li  tau( 128) = (   0.4375946   0.0166979   1.3678770  )
       129           Li  tau( 129) = (   0.2503214   0.1976350   1.7778229  )
       130           Li  tau( 130) = (   0.3734863   0.0944472   1.7643754  )
       131           Li  tau( 131) = (   0.3884767   0.2726076   1.7729137  )
       132           Li  tau( 132) = (   0.4073370   0.0697602   1.5218653  )
       133           Li  tau( 133) = (   0.1103019   0.5578100   1.6135722  )
       134           Li  tau( 134) = (   0.5375021   0.1770453   1.5164244  )
       135           Li  tau( 135) = (   0.4219217   0.1786823   1.6141157  )
       136           Li  tau( 136) = (   0.2648296   0.2594968   1.5988273  )
       137           Li  tau( 137) = (   0.2891864   0.0849469   1.6241034  )
       138           Li  tau( 138) = (  -0.0190455   0.5734175   1.4595021  )
       139           Li  tau( 139) = (   0.0021608   0.5609968   1.7014102  )
       140           Cr  tau( 140) = (   0.4962988   0.0863092   1.7011414  )
       141           Cr  tau( 141) = (   0.3201629   0.1757801   1.4438163  )
       142           N   tau( 142) = (   0.5864517   0.0793844   1.7391636  )
       143           N   tau( 143) = (   0.4987867   0.0815795   1.5949877  )
       144           N   tau( 144) = (   0.2221022   0.1707704   1.4064135  )
       145           N   tau( 145) = (   0.3687280   0.0977714   1.4120123  )
       146           N   tau( 146) = (   0.3786111   0.2599374   1.3989681  )
       147           N   tau( 147) = (   0.1126249   0.5730621   1.7356688  )
       148           N   tau( 148) = (   0.4559781   0.1757549   1.7402039  )
       149           N   tau( 149) = (   0.3172379   0.1814735   1.5373232  )
       150           O   tau( 150) = (  -0.0018120   0.5743636   1.5648259  )
       151           Li  tau( 151) = (   0.4259940   0.3759836   0.8766270  )
       152           Li  tau( 152) = (   0.2947255   0.4696050   0.8766270  )
       153           Li  tau( 153) = (   0.2792811   0.3091127   0.8766270  )
       154           Li  tau( 154) = (   0.0764167   0.4814014   1.2845624  )
       155           Li  tau( 155) = (   0.1999294   0.3722345   1.2608642  )
       156           Li  tau( 156) = (   0.2157186   0.5691910   1.2874962  )
       157           Li  tau( 157) = (   0.2336608   0.3791318   1.0336250  )
       158           Li  tau( 158) = (   0.3881652   0.3014656   1.0336250  )
       159           Li  tau( 159) = (   0.3781739   0.4741032   1.0336250  )
       160           Li  tau( 160) = (   0.2719618   0.4872801   1.1092195  )
       161           Li  tau( 161) = (   0.1099758   0.5578001   1.1148825  )
       162           Li  tau( 162) = (   0.1236102   0.3839556   1.1082084  )
       163           Li  tau( 163) = (   0.1666667   0.2886750   0.9626942  )
       164           Li  tau( 164) = (   0.1690803   0.2827385   1.1830665  )
       165           Cr  tau( 165) = (   0.3321943   0.3911673   1.2064257  )
       166           Cr  tau( 166) = (   0.1666667   0.4811250   0.9478909  )
       167           N   tau( 167) = (   0.4222373   0.3674306   1.2511395  )
       168           N   tau( 168) = (   0.3381553   0.3934220   1.0969759  )
       169           N   tau( 169) = (   0.0697328   0.4869528   0.9168466  )
       170           N   tau( 170) = (   0.2100866   0.3942641   0.9168466  )
       171           N   tau( 171) = (   0.2201806   0.5621587   0.9168466  )
       172           N   tau( 172) = (   0.2719688   0.3066611   1.2330869  )
       173           N   tau( 173) = (   0.2866757   0.4695354   1.2434661  )
       174           N   tau( 174) = (   0.1666667   0.4811250   1.0497374  )
       175           O   tau( 175) = (   0.1797874   0.2976710   1.0786310  )
       176           Li  tau( 176) = (   0.4025360   0.3652250   1.3624828  )
       177           Li  tau( 177) = (   0.2965126   0.4723582   1.3557854  )
       178           Li  tau( 178) = (   0.2764782   0.3044461   1.3587776  )
       179           Li  tau( 179) = (   0.0729418   0.4669821   1.7855898  )
       180           Li  tau( 180) = (   0.2026370   0.3826716   1.7426351  )
       181           Li  tau( 181) = (   0.2248946   0.5470509   1.7669059  )
       182           Li  tau( 182) = (   0.2280130   0.3758602   1.5236244  )
       183           Li  tau( 183) = (   0.3836704   0.2838226   1.5235893  )
       184           Li  tau( 184) = (   0.3528786   0.4900310   1.5006568  )
       185           Li  tau( 185) = (   0.2754590   0.4770347   1.6054196  )
       186           Li  tau( 186) = (   0.0498684   0.4771703   1.5403621  )
       187           Li  tau( 187) = (   0.1107846   0.3952939   1.5958585  )
       188           Li  tau( 188) = (   0.1735938   0.2586073   1.4686307  )
       189           Li  tau( 189) = (   0.1745224   0.2609181   1.6834627  )
       190           Cr  tau( 190) = (   0.3370292   0.3726132   1.6949115  )
       191           Cr  tau( 191) = (   0.1641835   0.4698440   1.4389539  )
       192           N   tau( 192) = (   0.4299803   0.3709991   1.7330331  )
       193           N   tau( 193) = (   0.3387982   0.3888647   1.5870688  )
       194           N   tau( 194) = (   0.0630575   0.4633996   1.4065947  )
       195           N   tau( 195) = (   0.2211227   0.3913409   1.3978343  )
       196           N   tau( 196) = (   0.2041612   0.5572595   1.4020830  )
       197           N   tau( 197) = (   0.2831090   0.2813727   1.7137414  )
       198           N   tau( 198) = (   0.2841388   0.4544095   1.7280947  )
       199           N   tau( 199) = (   0.1646837   0.4724119   1.5428401  )
       200           O   tau( 200) = (   0.1491709   0.2876973   1.5674207  )
       201           Li  tau( 201) = (   0.9259927   0.0873080   0.8766270  )
       202           Li  tau( 202) = (   0.7947266   0.1809300   0.8766270  )
       203           Li  tau( 203) = (   0.7792805   0.0204373   0.8766270  )
       204           Li  tau( 204) = (   0.5911154   0.1883941   1.2600168  )
       205           Li  tau( 205) = (   0.7099510   0.1006496   1.2855092  )
       206           Li  tau( 206) = (   0.7164731   0.2535153   1.2796533  )
       207           Li  tau( 207) = (   0.7336608   0.0904568   1.0336250  )
       208           Li  tau( 208) = (   0.8881634   0.0127904   1.0336250  )
       209           Li  tau( 209) = (   0.8781757   0.1854282   1.0336250  )
       210           Li  tau( 210) = (   0.7634252   0.1942494   1.1206390  )
       211           Li  tau( 211) = (   0.6090629   0.2735772   1.1162792  )
       212           Li  tau( 212) = (   0.6233928   0.0976188   1.1163435  )
       213           Li  tau( 213) = (   0.6666690   0.0000000   0.9626942  )
       214           Li  tau( 214) = (   0.3349527   0.5705877   1.2133978  )
       215           Cr  tau( 215) = (   0.8322696   0.0778369   1.1979984  )
       216           Cr  tau( 216) = (   0.6666690   0.1924500   0.9478909  )
       217           N   tau( 217) = (   0.9204349   0.0788532   1.2488019  )
       218           N   tau( 218) = (   0.8364599   0.0922808   1.0900564  )
       219           N   tau( 219) = (   0.5697327   0.1982778   0.9168466  )
       220           N   tau( 220) = (   0.7100854   0.1055885   0.9168466  )
       221           N   tau( 221) = (   0.7201783   0.2734837   0.9168466  )
       222           N   tau( 222) = (   0.7807298   0.0046072   1.2397375  )
       223           N   tau( 223) = (   0.7837805   0.1613251   1.2353778  )
       224           N   tau( 224) = (   0.6666690   0.1924500   1.0497374  )
       225           O   tau( 225) = (   0.6648806  -0.0019934   1.0694089  )
       226           Li  tau( 226) = (   0.9164200   0.0771794   1.3947778  )
       227           Li  tau( 227) = (   0.7926753   0.1829199   1.3662056  )
       228           Li  tau( 228) = (   0.7602284  -0.0029115   1.3637277  )
       229           Li  tau( 229) = (   0.5585382   0.1888985   1.7916853  )
       230           Li  tau( 230) = (   0.7121776   0.1054518   1.8054541  )
       231           Li  tau( 231) = (   0.7116750   0.2606469   1.7500572  )
       232           Li  tau( 232) = (   0.7308556   0.0473646   1.5353478  )
       233           Li  tau( 233) = (   0.8696958  -0.0019430   1.5292874  )
       234           Li  tau( 234) = (   0.8533847   0.1799902   1.5072373  )
       235           Li  tau( 235) = (   0.7842597   0.1981644   1.6135839  )
       236           Li  tau( 236) = (   0.5936985   0.2471907   1.6118832  )
       237           Li  tau( 237) = (   0.6322584   0.1082909   1.6090605  )
       238           Li  tau( 238) = (   0.5681624   0.0043081   1.5132159  )
       239           Li  tau( 239) = (   0.3394370   0.5891342   1.7003466  )
       240           Cr  tau( 240) = (   0.8176358   0.0904773   1.7062609  )
       241           Cr  tau( 241) = (   0.6698424   0.1872294   1.4350792  )
       242           N   tau( 242) = (   0.9145908   0.0833111   1.7363409  )
       243           N   tau( 243) = (   0.8117566   0.0831948   1.6117897  )
       244           N   tau( 244) = (   0.5653022   0.1904332   1.3950583  )
       245           N   tau( 245) = (   0.7107282   0.1063161   1.4034915  )
       246           N   tau( 246) = (   0.7224400   0.2680094   1.4014226  )
       247           N   tau( 247) = (   0.7666103   0.0134439   1.7508695  )
       248           N   tau( 248) = (   0.7844467   0.1872528   1.7278434  )
       249           N   tau( 249) = (   0.6707424   0.1835990   1.5332965  )
       250           O   tau( 250) = (   0.3257049   0.5705462   1.5825747  )
       251           Li  tau( 251) = (   0.7593284   0.3759836   0.8766270  )
       252           Li  tau( 252) = (   0.6280565   0.4696050   0.8766270  )
       253           Li  tau( 253) = (   0.6126161   0.3091127   0.8766270  )
       254           Li  tau( 254) = (   0.4111240   0.4856098   1.2745046  )
       255           Li  tau( 255) = (   0.5331505   0.3773604   1.2812604  )
       256           Li  tau( 256) = (   0.5606269   0.5489035   1.2758195  )
       257           Li  tau( 257) = (   0.5669941   0.3791318   1.0336250  )
       258           Li  tau( 258) = (   0.7214991   0.3014656   1.0336250  )
       259           Li  tau( 259) = (   0.7115055   0.4741032   1.0336250  )
       260           Li  tau( 260) = (   0.6125343   0.4902583   1.1269332  )
       261           Li  tau( 261) = (   0.4332828   0.5576049   1.1141227  )
       262           Li  tau( 262) = (   0.4566116   0.3855195   1.1058824  )
       263           Li  tau( 263) = (   0.5000000   0.2886750   0.9626942  )
       264           Li  tau( 264) = (   0.4788569   0.2842971   1.1827451  )
       265           Cr  tau( 265) = (   0.6698599   0.3766323   1.2170738  )
       266           Cr  tau( 266) = (   0.5000000   0.4811250   0.9478909  )
       267           N   tau( 267) = (   0.7703973   0.3678093   1.2441265  )
       268           N   tau( 268) = (   0.6715898   0.3959455   1.1129773  )
       269           N   tau( 269) = (   0.4030661   0.4869528   0.9168466  )
       270           N   tau( 270) = (   0.5434199   0.3942641   0.9168466  )
       271           N   tau( 271) = (   0.5535140   0.5621587   0.9168466  )
       272           N   tau( 272) = (   0.6119090   0.2981297   1.2384752  )
       273           N   tau( 273) = (   0.6360864   0.4633616   1.2415083  )
       274           N   tau( 274) = (   0.5000000   0.4811250   1.0497374  )
       275           O   tau( 275) = (   0.5014821   0.2820308   1.0705252  )
       276           Li  tau( 276) = (   0.7535894   0.3700879   1.3502685  )
       277           Li  tau( 277) = (   0.6263091   0.4738414   1.3716407  )
       278           Li  tau( 278) = (   0.6102025   0.2940230   1.3688004  )
       279           Li  tau( 279) = (   0.3842747   0.4755584   1.7719728  )
       280           Li  tau( 280) = (   0.5377259   0.3758608   1.7576020  )
       281           Li  tau( 281) = (   0.5455361   0.5572197   1.7768761  )
       282           Li  tau( 282) = (   0.5527636   0.3575872   1.5273939  )
       283           Li  tau( 283) = (   0.7314283   0.2898444   1.5209127  )
       284           Li  tau( 284) = (   0.7174140   0.4459244   1.5215731  )
       285           Li  tau( 285) = (   0.5970589   0.4862965   1.6024566  )
       286           Li  tau( 286) = (   0.4202561   0.5012471   1.6245417  )
       287           Li  tau( 287) = (   0.4487740   0.3811305   1.5955312  )
       288           Li  tau( 288) = (   0.4915353   0.2678756   1.4317598  )
       289           Li  tau( 289) = (   0.4947981   0.2793740   1.6900082  )
       290           Cr  tau( 290) = (   0.6599072   0.3780588   1.7000544  )
       291           Cr  tau( 291) = (   0.4961510   0.4640775   1.4398130  )
       292           N   tau( 292) = (   0.7570492   0.3765878   1.7311863  )
       293           N   tau( 293) = (   0.6541215   0.3800324   1.5931059  )
       294           N   tau( 294) = (   0.4006355   0.4701315   1.3907511  )
       295           N   tau( 295) = (   0.5382408   0.3822666   1.4021473  )
       296           N   tau( 296) = (   0.5426625   0.5484020   1.4047830  )
       297           N   tau( 297) = (   0.6011265   0.2979696   1.7214324  )
       298           N   tau( 298) = (   0.6175136   0.4658226   1.7287317  )
       299           N   tau( 299) = (   0.4863597   0.4655351   1.5372706  )
       300           O   tau( 300) = (   0.4884963   0.2735403   1.5729025  )

   Crystallographic axes

     site n.     atom                  positions (cryst. coord.)
         1           Li  tau(   1) = (  0.3097346  0.1512218  0.3321863  )
         2           Li  tau(   2) = (  0.2325188  0.3133799  0.3321863  )
         3           Li  tau(   3) = (  0.1244139  0.0353984  0.3321863  )
         4           Li  tau(   4) = (  1.0174678  0.3366483  0.4806160  )
         5           Li  tau(   5) = (  0.0788144  0.1736288  0.4916202  )
         6           Li  tau(   6) = (  0.2115726  0.4548113  0.4872087  )
         7           Li  tau(   7) = (  0.1192194  0.1566758  0.3916786  )
         8           Li  tau(   8) = (  0.2288830  0.0221536  0.3916786  )
         9           Li  tau(   9) = (  0.3185643  0.3211711  0.3916786  )
        10           Li  tau(  10) = (  0.1843154  0.3155906  0.4221157  )
        11           Li  tau(  11) = (  0.0915462  0.4825832  0.4227535  )
        12           Li  tau(  12) = (  0.0295110  0.1708067  0.4219939  )
        13           Li  tau(  13) = (  0.0000000  0.0000000  0.3648003  )
        14           Li  tau(  14) = (  0.0070705  1.0099327  0.4536867  )
        15           Cr  tau(  15) = (  0.2171697  0.1642413  0.4597547  )
        16           Cr  tau(  16) = (  0.1111111  0.3333332  0.3591908  )
        17           N   tau(  17) = (  0.3079160  0.1576232  0.4727631  )
        18           N   tau(  18) = (  0.2164457  0.1728342  0.4218256  )
        19           N   tau(  19) = (  0.0175419  0.3434273  0.3474270  )
        20           N   tau(  20) = (  0.1043816  0.1828847  0.3474270  )
        21           N   tau(  21) = (  0.2114100  0.4736876  0.3474270  )
        22           N   tau(  22) = (  0.1259587  0.0329813  0.4763507  )
        23           N   tau(  23) = (  0.2311333  0.3295332  0.4680571  )
        24           N   tau(  24) = (  0.1111111  0.3333332  0.3977842  )
        25           O   tau(  25) = ( -0.0127832  0.0012071  0.4075372  )
        26           Li  tau(  26) = (  0.3096451  0.1187076  0.5142000  )
        27           Li  tau(  27) = (  0.2163252  0.2945431  0.5156417  )
        28           Li  tau(  28) = (  0.1297276  0.0397892  0.5252396  )
        29           Li  tau(  29) = ( -0.0019915  0.3301436  0.6741211  )
        30           Li  tau(  30) = (  0.0906218  0.1612622  0.6813760  )
        31           Li  tau(  31) = (  0.2103792  0.4689847  0.6695015  )
        32           Li  tau(  32) = (  0.1109895  0.1744244  0.5848427  )
        33           Li  tau(  33) = (  0.1969544  0.0203089  0.5759446  )
        34           Li  tau(  34) = (  0.2878867  0.2458239  0.5774793  )
        35           Li  tau(  35) = (  0.2054791  0.3279622  0.6164912  )
        36           Li  tau(  36) = (  0.1025591  0.4633394  0.6141792  )
        37           Li  tau(  37) = (  0.9901534  0.1647980  0.6158401  )
        38           Li  tau(  38) = ( -0.0071168  0.9954070  0.5560400  )
        39           Li  tau(  39) = (  0.9768810  0.9872312  0.6425590  )
        40           Cr  tau(  40) = (  0.2110820  0.1401590  0.6500531  )
        41           Cr  tau(  41) = (  0.1021614  0.3279764  0.5456824  )
        42           N   tau(  42) = (  0.3136179  0.1399181  0.6620207  )
        43           N   tau(  43) = (  0.2071650  0.1352739  0.6109304  )
        44           N   tau(  44) = (  0.0135347  0.3201639  0.5274542  )
        45           N   tau(  45) = (  0.0963698  0.1638566  0.5389589  )
        46           N   tau(  46) = (  0.1973466  0.4850632  0.5367089  )
        47           N   tau(  47) = (  0.1114350  0.0002173  0.6627404  )
        48           N   tau(  48) = (  0.2253999  0.3022219  0.6639540  )
        49           N   tau(  49) = (  0.0910399  0.3249862  0.5862224  )
        50           O   tau(  50) = (  0.9797734  0.0007264  0.5959267  )
        51           Li  tau(  51) = (  0.3097348  0.6512226  0.3321863  )
        52           Li  tau(  52) = (  0.2325186  0.8133797  0.3321863  )
        53           Li  tau(  53) = (  0.1244139  0.5353989  0.3321863  )
        54           Li  tau(  54) = (  0.0318813  0.8397283  0.4840663  )
        55           Li  tau(  55) = (  0.0918201  0.6557726  0.4834418  )
        56           Li  tau(  56) = (  0.2002060  0.9590919  0.4884113  )
        57           Li  tau(  57) = (  0.1192194  0.6566756  0.3916786  )
        58           Li  tau(  58) = (  0.2288831  0.5221537  0.3916786  )
        59           Li  tau(  59) = (  0.3185642  0.8211709  0.3916786  )
        60           Li  tau(  60) = (  0.2112508  0.8316456  0.4243967  )
        61           Li  tau(  61) = (  0.1068925  0.9712398  0.4214248  )
        62           Li  tau(  62) = ( -0.0080704  0.6524555  0.4253158  )
        63           Li  tau(  63) = ( -0.0000001  0.4999998  0.3648003  )
        64           Li  tau(  64) = ( -0.0195947  0.4720417  0.4512241  )
        65           Cr  tau(  65) = (  0.2101754  0.6542148  0.4559013  )
        66           Cr  tau(  66) = (  0.1111110  0.8333330  0.3591908  )
        67           N   tau(  67) = (  0.3018991  0.6567353  0.4714875  )
        68           N   tau(  68) = (  0.2182499  0.6492153  0.4181118  )
        69           N   tau(  69) = (  0.0175418  0.8434271  0.3474270  )
        70           N   tau(  70) = (  0.1043818  0.6828855  0.3474270  )
        71           N   tau(  71) = (  0.2114098  0.9736874  0.3474270  )
        72           N   tau(  72) = (  0.1143155  0.5224604  0.4682188  )
        73           N   tau(  73) = (  0.2128925  0.8114797  0.4659599  )
        74           N   tau(  74) = (  0.1111110  0.8333330  0.3977842  )
        75           O   tau(  75) = (  0.9968575  0.5124008  0.4104427  )
        76           Li  tau(  76) = (  0.3070596  0.6326055  0.5141468  )
        77           Li  tau(  77) = (  0.2280339  0.7888693  0.5136486  )
        78           Li  tau(  78) = (  0.1152214  0.5247329  0.5173048  )
        79           Li  tau(  79) = ( -0.0066626  0.8140245  0.6746349  )
        80           Li  tau(  80) = (  0.0807554  0.6690694  0.6700108  )
        81           Li  tau(  81) = (  0.1947210  0.9292034  0.6757222  )
        82           Li  tau(  82) = (  0.1059416  0.6678568  0.5798134  )
        83           Li  tau(  83) = (  0.2264877  0.5305816  0.5809118  )
        84           Li  tau(  84) = (  0.2285620  0.6779478  0.5552206  )
        85           Li  tau(  85) = (  0.2095931  0.8580610  0.6073472  )
        86           Li  tau(  86) = (  0.1021554  0.9476313  0.6211817  )
        87           Li  tau(  87) = (  1.0144202  0.6956712  0.6136787  )
        88           Li  tau(  88) = (  0.0085547  0.5007539  0.5451863  )
        89           Li  tau(  89) = (  1.0039511  0.5119938  0.6406788  )
        90           Cr  tau(  90) = (  0.2050142  0.6530902  0.6460824  )
        91           Cr  tau(  91) = (  0.0982472  0.8126387  0.5460434  )
        92           N   tau(  92) = (  0.3053811  0.6365573  0.6557645  )
        93           N   tau(  93) = (  0.2138578  0.6823187  0.6064924  )
        94           N   tau(  94) = (  1.0123862  0.8266734  0.5350369  )
        95           N   tau(  95) = (  0.1170886  0.6772818  0.5365716  )
        96           N   tau(  96) = (  0.1981914  0.9541491  0.5346604  )
        97           N   tau(  97) = (  0.1017182  0.5054760  0.6589601  )
        98           N   tau(  98) = (  0.2127075  0.7974541  0.6603730  )
        99           N   tau(  99) = (  0.0916807  0.8198044  0.5832150  )
       100           O   tau( 100) = ( -0.0163371  0.4983529  0.5946821  )
       101           Li  tau( 101) = (  0.6430655  0.1512218  0.3321863  )
       102           Li  tau( 102) = (  0.5658521  0.3133799  0.3321863  )
       103           Li  tau( 103) = (  0.4577472  0.0353984  0.3321863  )
       104           Li  tau( 104) = (  0.3471013  0.3572545  0.4828793  )
       105           Li  tau( 105) = (  0.4191378  0.1930972  0.4733632  )
       106           Li  tau( 106) = (  0.5383298  0.4663397  0.4861524  )
       107           Li  tau( 107) = (  0.4525527  0.1566758  0.3916786  )
       108           Li  tau( 108) = (  0.5622164  0.0221536  0.3916786  )
       109           Li  tau( 109) = (  0.6518976  0.3211711  0.3916786  )
       110           Li  tau( 110) = (  0.5442810  0.3225872  0.4210417  )
       111           Li  tau( 111) = (  0.4550215  0.4755248  0.4278271  )
       112           Li  tau( 112) = (  0.3374472  0.1998469  0.4265183  )
       113           Li  tau( 113) = (  0.3333333  0.0000000  0.3648003  )
       114           Li  tau( 114) = (  0.3124613  0.9624019  0.4537222  )
       115           Cr  tau( 115) = (  0.5468869  0.1560158  0.4548095  )
       116           Cr  tau( 116) = (  0.4444444  0.3333332  0.3591908  )
       117           N   tau( 117) = (  0.6382543  0.1376122  0.4674215  )
       118           N   tau( 118) = (  0.5444155  0.1602642  0.4156558  )
       119           N   tau( 119) = (  0.3508752  0.3434273  0.3474270  )
       120           N   tau( 120) = (  0.4377148  0.1828847  0.3474270  )
       121           N   tau( 121) = (  0.5447432  0.4736876  0.3474270  )
       122           N   tau( 122) = (  0.4422605  0.0289509  0.4705197  )
       123           N   tau( 123) = (  0.5651262  0.3204575  0.4678069  )
       124           N   tau( 124) = (  0.4444444  0.3333332  0.3977842  )
       125           O   tau( 125) = (  0.3283593  0.9964648  0.4107660  )
       126           Li  tau( 126) = (  0.6443226  0.1512937  0.5189126  )
       127           Li  tau( 127) = (  0.5411331  0.2861820  0.5156240  )
       128           Li  tau( 128) = (  0.4472352  0.0289216  0.5183390  )
       129           Li  tau( 129) = (  0.3644260  0.3423138  0.6736826  )
       130           Li  tau( 130) = (  0.4280155  0.1635874  0.6685869  )
       131           Li  tau( 131) = (  0.5458667  0.4721702  0.6718224  )
       132           Li  tau( 132) = (  0.4476131  0.1208282  0.5766909  )
       133           Li  tau( 133) = (  0.4323536  0.9661553  0.6114420  )
       134           Li  tau( 134) = (  0.6397192  0.3066515  0.5746291  )
       135           Li  tau( 135) = (  0.5250840  0.3094868  0.6116479  )
       136           Li  tau( 136) = (  0.4146501  0.4494616  0.6058546  )
       137           Li  tau( 137) = (  0.3382305  0.1471324  0.6154326  )
       138           Li  tau( 138) = (  0.3120172  0.9931882  0.5530591  )
       139           Li  tau( 139) = (  0.3260525  0.9716750  0.6447270  )
       140           Cr  tau( 140) = (  0.5461295  0.1494919  0.6446252  )
       141           Cr  tau( 141) = (  0.4216495  0.3044600  0.5471152  )
       142           N   tau( 142) = (  0.6322844  0.1374978  0.6590332  )
       143           N   tau( 143) = (  0.5458867  0.1412998  0.6043996  )
       144           N   tau( 144) = (  0.3206966  0.2957831  0.5329419  )
       145           N   tau( 145) = (  0.4251763  0.1693450  0.5350635  )
       146           N   tau( 146) = (  0.5286860  0.4502248  0.5301206  )
       147           N   tau( 147) = (  0.4434825  0.9925728  0.6577089  )
       148           N   tau( 148) = (  0.5574503  0.3044165  0.6594274  )
       149           N   tau( 149) = (  0.4220116  0.3143213  0.5825484  )
       150           O   tau( 150) = (  0.3297970  0.9948270  0.5929702  )
       151           Li  tau( 151) = (  0.6430682  0.6512226  0.3321863  )
       152           Li  tau( 152) = (  0.5658520  0.8133797  0.3321863  )
       153           Li  tau( 153) = (  0.4577474  0.5353989  0.3321863  )
       154           Li  tau( 154) = (  0.3543540  0.8338118  0.4867680  )
       155           Li  tau( 155) = (  0.4148391  0.6447291  0.4777879  )
       156           Li  tau( 156) = (  0.5443412  0.9858677  0.4878798  )
       157           Li  tau( 157) = (  0.4525527  0.6566756  0.3916786  )
       158           Li  tau( 158) = (  0.5622164  0.5221537  0.3916786  )
       159           Li  tau( 159) = (  0.6518976  0.8211709  0.3916786  )
       160           Li  tau( 160) = (  0.5532931  0.8439939  0.4203241  )
       161           Li  tau( 161) = (  0.4320218  0.9661381  0.4224701  )
       162           Li  tau( 162) = (  0.3452871  0.6650306  0.4199410  )
       163           Li  tau( 163) = (  0.3333333  0.4999998  0.3648003  )
       164           Li  tau( 164) = (  0.3323194  0.4897174  0.4483075  )
       165           Cr  tau( 165) = (  0.5580348  0.6775217  0.4571592  )
       166           Cr  tau( 166) = (  0.4444443  0.8333330  0.3591908  )
       167           N   tau( 167) = (  0.6343735  0.6364085  0.4741029  )
       168           N   tau( 168) = (  0.5652976  0.6814269  0.4156846  )
       169           N   tau( 169) = (  0.3508751  0.8434271  0.3474270  )
       170           N   tau( 170) = (  0.4377151  0.6828855  0.3474270  )
       171           N   tau( 171) = (  0.5447431  0.9736874  0.3474270  )
       172           N   tau( 172) = (  0.4490197  0.5311525  0.4672621  )
       173           N   tau( 173) = (  0.5577621  0.8132592  0.4711952  )
       174           N   tau( 174) = (  0.4444443  0.8333330  0.3977842  )
       175           O   tau( 175) = (  0.3516478  0.5155812  0.4087331  )
       176           Li  tau( 176) = (  0.6133987  0.6325883  0.5162950  )
       177           Li  tau( 177) = (  0.5692288  0.8181483  0.5137571  )
       178           Li  tau( 178) = (  0.4522503  0.5273161  0.5148909  )
       179           Li  tau( 179) = (  0.3425540  0.8088367  0.6766258  )
       180           Li  tau( 180) = (  0.4235726  0.6628067  0.6603487  )
       181           Li  tau( 181) = (  0.5407345  0.9475199  0.6695458  )
       182           Li  tau( 182) = (  0.4450160  0.6510090  0.5773575  )
       183           Li  tau( 183) = (  0.5475354  0.4915951  0.5773442  )
       184           Li  tau( 184) = (  0.6357981  0.8487585  0.5686542  )
       185           Li  tau( 185) = (  0.5508751  0.8262483  0.6083526  )
       186           Li  tau( 186) = (  0.3253628  0.8264831  0.5837000  )
       187           Li  tau( 187) = (  0.3390076  0.6846691  0.6047296  )
       188           Li  tau( 188) = (  0.3229008  0.4479210  0.5565183  )
       189           Li  tau( 189) = (  0.3251635  0.4519234  0.6379261  )
       190           Cr  tau( 190) = (  0.5521575  0.6453850  0.6422644  )
       191           Cr  tau( 191) = (  0.4354480  0.8137937  0.5452727  )
       192           N   tau( 192) = (  0.6441767  0.6425892  0.6567101  )
       193           N   tau( 193) = (  0.5633093  0.6735334  0.6013989  )
       194           N   tau( 194) = (  0.3306014  0.8026317  0.5330106  )
       195           N   tau( 195) = (  0.4470635  0.6778223  0.5296909  )
       196           N   tau( 196) = (  0.5258951  0.9652017  0.5313009  )
       197           N   tau( 197) = (  0.4455596  0.4873518  0.6493998  )
       198           N   tau( 198) = (  0.5464922  0.7870604  0.6548388  )
       199           N   tau( 199) = (  0.4374309  0.8182415  0.5846390  )
       200           O   tau( 200) = (  0.3152730  0.4983063  0.5939535  )
       201           Li  tau( 201) = (  0.9764000  0.1512218  0.3321863  )
       202           Li  tau( 202) = (  0.8991866  0.3133799  0.3321863  )
       203           Li  tau( 203) = (  0.7910799  0.0353984  0.3321863  )
       204           Li  tau( 204) = (  0.6998848  0.3263082  0.4774668  )
       205           Li  tau( 205) = (  0.7680610  0.1743303  0.4871268  )
       206           Li  tau( 206) = (  0.8628402  0.4391013  0.4849078  )
       207           Li  tau( 207) = (  0.7858861  0.1566758  0.3916786  )
       208           Li  tau( 208) = (  0.8955479  0.0221536  0.3916786  )
       209           Li  tau( 209) = (  0.9852327  0.3211711  0.3916786  )
       210           Li  tau( 210) = (  0.8755752  0.3364499  0.4246514  )
       211           Li  tau( 211) = (  0.7670127  0.4738495  0.4229994  )
       212           Li  tau( 212) = (  0.6797531  0.1690808  0.4230237  )
       213           Li  tau( 213) = (  0.6666690  0.0000000  0.3648003  )
       214           Li  tau( 214) = (  0.6643817  0.9882869  0.4598012  )
       215           Cr  tau( 215) = (  0.8772088  0.1348174  0.4539658  )
       216           Cr  tau( 216) = (  0.7777800  0.3333332  0.3591908  )
       217           N   tau( 217) = (  0.9659608  0.1365777  0.4732171  )
       218           N   tau( 218) = (  0.8897382  0.1598350  0.4130626  )
       219           N   tau( 219) = (  0.6842085  0.3434273  0.3474270  )
       220           N   tau( 220) = (  0.7710469  0.1828847  0.3474270  )
       221           N   tau( 221) = (  0.8780741  0.4736876  0.3474270  )
       222           N   tau( 222) = (  0.7833898  0.0079799  0.4697823  )
       223           N   tau( 223) = (  0.8769216  0.2794232  0.4681302  )
       224           N   tau( 224) = (  0.7777800  0.3333332  0.3977842  )
       225           O   tau( 225) = (  0.6637298 -0.0034526  0.4052385  )
       226           Li  tau( 226) = (  0.9609795  0.1336787  0.5285327  )
       227           Li  tau( 227) = (  0.8982842  0.3168266  0.5177057  )
       228           Li  tau( 228) = (  0.7585475 -0.0050429  0.5167667  )
       229           Li  tau( 229) = (  0.6675988  0.3271818  0.6789356  )
       230           Li  tau( 230) = (  0.7730602  0.1826479  0.6841531  )
       231           Li  tau( 231) = (  0.8621596  0.4514537  0.6631612  )
       232           Li  tau( 232) = (  0.7582015  0.0820378  0.5817999  )
       233           Li  tau( 233) = (  0.8685740 -0.0033653  0.5795034  )
       234           Li  tau( 234) = (  0.9573021  0.3117522  0.5711478  )
       235           Li  tau( 235) = (  0.8986700  0.3432309  0.6114464  )
       236           Li  tau( 236) = (  0.7364141  0.4281468  0.6108020  )
       237           Li  tau( 237) = (  0.6947802  0.1875653  0.6097323  )
       238           Li  tau( 238) = (  0.5706496  0.0074618  0.5734133  )
       239           Li  tau( 239) = (  0.6795738  1.0204104  0.6443240  )
       240           Cr  tau( 240) = (  0.8698729  0.1567112  0.6465651  )
       241           Cr  tau( 241) = (  0.7779393  0.3242908  0.5438044  )
       242           N   tau( 242) = (  0.9626905  0.1442991  0.6579636  )
       243           N   tau( 243) = (  0.8597891  0.1440977  0.6107665  )
       244           N   tau( 244) = (  0.6752489  0.3298399  0.5286390  )
       245           N   tau( 245) = (  0.7721099  0.1841450  0.5318346  )
       246           N   tau( 246) = (  0.8771753  0.4642059  0.5310507  )
       247           N   tau( 247) = (  0.7743721  0.0232855  0.6634690  )
       248           N   tau( 248) = (  0.8925572  0.3243313  0.6547436  )
       249           N   tau( 249) = (  0.7767433  0.3180028  0.5810226  )
       250           O   tau( 250) = (  0.6551099  0.9882151  0.5996959  )
       251           Li  tau( 251) = (  0.9764026  0.6512226  0.3321863  )
       252           Li  tau( 252) = (  0.8991830  0.8133797  0.3321863  )
       253           Li  tau( 253) = (  0.7910824  0.5353989  0.3321863  )
       254           Li  tau( 254) = (  0.6914910  0.8411009  0.4829568  )
       255           Li  tau( 255) = (  0.7510196  0.6536075  0.4855168  )
       256           Li  tau( 256) = (  0.8775365  0.9507287  0.4834550  )
       257           Li  tau( 257) = (  0.7858860  0.6566756  0.3916786  )
       258           Li  tau( 258) = (  0.8955503  0.5221537  0.3916786  )
       259           Li  tau( 259) = (  0.9852291  0.8211709  0.3916786  )
       260           Li  tau( 260) = (  0.8955851  0.8491523  0.4270365  )
       261           Li  tau( 261) = (  0.7552161  0.9658000  0.4221822  )
       262           Li  tau( 262) = (  0.6791914  0.6677394  0.4190596  )
       263           Li  tau( 263) = (  0.6666666  0.4999998  0.3648003  )
       264           Li  tau( 264) = (  0.6429959  0.4924171  0.4481857  )
       265           Cr  tau( 265) = (  0.8873086  0.6523462  0.4611941  )
       266           Cr  tau( 266) = (  0.7777776  0.8333330  0.3591908  )
       267           N   tau( 267) = (  0.9827521  0.6370644  0.4714454  )
       268           N   tau( 268) = (  0.9001890  0.6857978  0.4217481  )
       269           N   tau( 269) = (  0.6842084  0.8434271  0.3474270  )
       270           N   tau( 270) = (  0.7710484  0.6828855  0.3474270  )
       271           N   tau( 271) = (  0.8780764  0.9736874  0.3474270  )
       272           N   tau( 272) = (  0.7840343  0.5163758  0.4693039  )
       273           N   tau( 273) = (  0.9036083  0.8025659  0.4704533  )
       274           N   tau( 274) = (  0.7777776  0.8333330  0.3977842  )
       275           O   tau( 275) = (  0.6643126  0.4884916  0.4056614  )
       276           Li  tau( 276) = (  0.9672598  0.6410111  0.5116665  )
       277           Li  tau( 277) = (  0.8998815  0.8207174  0.5197652  )
       278           Li  tau( 278) = (  0.7799568  0.5092628  0.5186889  )
       279           Li  tau( 279) = (  0.6588385  0.8236914  0.6714658  )
       280           Li  tau( 280) = (  0.7547292  0.6510100  0.6660202  )
       281           Li  tau( 281) = (  0.8672470  0.9651329  0.6733239  )
       282           Li  tau( 282) = (  0.7592167  0.6193593  0.5787859  )
       283           Li  tau( 283) = (  0.8987701  0.5020253  0.5763299  )
       284           Li  tau( 284) = (  0.9748685  0.7723636  0.5765801  )
       285           Li  tau( 285) = (  0.8778224  0.8422903  0.6072299  )
       286           Li  tau( 286) = (  0.7096513  0.8681855  0.6155987  )
       287           Li  tau( 287) = (  0.6688198  0.6601374  0.6046056  )
       288           Li  tau( 288) = (  0.6461933  0.4639741  0.5425465  )
       289           Li  tau( 289) = (  0.6560947  0.4838900  0.6404064  )
       290           Cr  tau( 290) = (  0.8781796  0.6548171  0.6442133  )
       291           Cr  tau( 291) = (  0.7640863  0.8038059  0.5455982  )
       292           N   tau( 292) = (  0.9744723  0.6522693  0.6560103  )
       293           N   tau( 293) = (  0.8735333  0.6582354  0.6036865  )
       294           N   tau( 294) = (  0.6720660  0.8142917  0.5270069  )
       295           N   tau( 295) = (  0.7589425  0.6621052  0.5313253  )
       296           N   tau( 296) = (  0.8592825  0.9498602  0.5323241  )
       297           N   tau( 297) = (  0.7731593  0.5160985  0.6523142  )
       298           N   tau( 298) = (  0.8864564  0.8068284  0.6550802  )
       299           N   tau( 299) = (  0.7551365  0.8063304  0.5825285  )
       300           O   tau( 300) = (  0.6464249  0.4737858  0.5960308  )

     number of k points=     1  Gaussian smearing, width (Ry)=  0.0147
                       cart. coord. in units 2pi/alat
        k(    1) = (   0.0000000   0.0000000   0.0000000), wk =   2.0000000

                       cryst. coord.
        k(    1) = (   0.0000000   0.0000000   0.0000000), wk =   2.0000000

     Dense  grid:  5457965 G-vectors     FFT dimensions: ( 240, 160, 640)

     Smooth grid:  2970742 G-vectors     FFT dimensions: ( 200, 135, 540)

     Dynamical RAM for                 wfc:    1182.84 MB

     Dynamical RAM for     wfc (w. buffer):    1182.84 MB

     Dynamical RAM for           str. fact:      83.28 MB

     Dynamical RAM for           local pot:       0.00 MB

     Dynamical RAM for          nlocal pot:    3977.76 MB

     Dynamical RAM for                qrad:       7.46 MB

     Dynamical RAM for          rho,v,vnew:     203.09 MB

     Dynamical RAM for               rhoin:      67.70 MB

     Dynamical RAM for            rho*nmix:     333.13 MB

     Dynamical RAM for           G-vectors:      83.74 MB

     Dynamical RAM for          h,s,v(r/c):      63.83 MB

     Dynamical RAM for          <psi|beta>:      17.89 MB

     Dynamical RAM for                 psi:    2365.69 MB

     Dynamical RAM for                hpsi:    2365.69 MB

     Dynamical RAM for                spsi:    2365.69 MB

     Dynamical RAM for      wfcinit/wfcrot:    4336.08 MB

     Dynamical RAM for           addusdens:    7370.47 MB

     Dynamical RAM for          addusforce:   14335.60 MB

     Dynamical RAM for         addusstress:    4184.93 MB

     Estimated static dynamical RAM per process >       5.81 GB

     Estimated max dynamical RAM per process >      20.13 GB

     Estimated total dynamical RAM >      80.52 GB

     Check: negative core charge=   -0.000002

     Initial potential from superposition of free atoms

     starting charge    1292.2742, renormalised to    1392.0000

     negative rho (up, down):  2.610E-02 0.000E+00
     Starting wfcs are 1512 randomized atomic wfcs
     Checking if some PAW data can be deallocated... 

     total cpu time spent up to now is       35.2 secs

     per-process dynamical memory:  1708.6 Mb

     Self-consistent Calculation
[tb_dev] Currently allocated     1.26E+02 Mbytes, locked:    0 /  11
[tb_pin] Currently allocated     0.00E+00 Mbytes, locked:    0 /   0

     iteration #  1     ecut=    90.00 Ry     beta= 0.20
     Davidson diagonalization with overlap

---- Real-time Memory Report at c_bands before calling an iterative solver
         10171 MiB given to the printing process from OS
          1746 MiB allocation reported by mallinfo(arena+hblkhd)
        465853 MiB available memory on the node where the printing process lives
     GPU memory used/free/total (MiB): 16367 / 48601 / 64969
------------------
     ethr =  1.00E-02,  avg # of iterations =  3.0

     negative rho (up, down):  4.093E-02 0.000E+00

     total cpu time spent up to now is       39.0 secs

     total energy              =   -9071.61305443 Ry
     estimated scf accuracy    <     237.28164797 Ry
[tb_dev] Currently allocated     2.41E+01 Mbytes, locked:    0 /   6
[tb_pin] Currently allocated     0.00E+00 Mbytes, locked:    0 /   0

     iteration #  2     ecut=    90.00 Ry     beta= 0.20
     Davidson diagonalization with overlap

---- Real-time Memory Report at c_bands before calling an iterative solver
         10502 MiB given to the printing process from OS
          2013 MiB allocation reported by mallinfo(arena+hblkhd)
        464886 MiB available memory on the node where the printing process lives
     GPU memory used/free/total (MiB): 31249 / 33719 / 64969
------------------
     ethr =  1.00E-02,  avg # of iterations =  3.0

     negative rho (up, down):  7.034E-02 0.000E+00

     total cpu time spent up to now is       42.7 secs

     total energy              =   -9060.57248216 Ry
     estimated scf accuracy    <      54.68217382 Ry
[tb_dev] Currently allocated     2.41E+01 Mbytes, locked:    0 /   6
[tb_pin] Currently allocated     0.00E+00 Mbytes, locked:    0 /   0

     iteration #  3     ecut=    90.00 Ry     beta= 0.20
     Davidson diagonalization with overlap

---- Real-time Memory Report at c_bands before calling an iterative solver
         10537 MiB given to the printing process from OS
         -2047 MiB allocation reported by mallinfo(arena+hblkhd)
        464757 MiB available memory on the node where the printing process lives
     GPU memory used/free/total (MiB): 31249 / 33719 / 64969
------------------
     ethr =  3.93E-03,  avg # of iterations =  7.0

     negative rho (up, down):  4.981E-02 0.000E+00

     total cpu time spent up to now is       48.2 secs

     total energy              =   -9100.68451111 Ry
     estimated scf accuracy    <     664.23750923 Ry
[tb_dev] Currently allocated     2.41E+01 Mbytes, locked:    0 /   6
[tb_pin] Currently allocated     0.00E+00 Mbytes, locked:    0 /   0

     iteration #  4     ecut=    90.00 Ry     beta= 0.20
     Davidson diagonalization with overlap

---- Real-time Memory Report at c_bands before calling an iterative solver
         10572 MiB given to the printing process from OS
         -2012 MiB allocation reported by mallinfo(arena+hblkhd)
        464437 MiB available memory on the node where the printing process lives
     GPU memory used/free/total (MiB): 31249 / 33719 / 64969
------------------
     ethr =  3.93E-03,  avg # of iterations =  2.0

     negative rho (up, down):  4.337E-02 0.000E+00

     total cpu time spent up to now is       51.8 secs

     total energy              =   -9092.93621534 Ry
     estimated scf accuracy    <     364.16918966 Ry
[tb_dev] Currently allocated     2.41E+01 Mbytes, locked:    0 /   6
[tb_pin] Currently allocated     0.00E+00 Mbytes, locked:    0 /   0

     iteration #  5     ecut=    90.00 Ry     beta= 0.20
     Davidson diagonalization with overlap

---- Real-time Memory Report at c_bands before calling an iterative solver
         10596 MiB given to the printing process from OS
         -1989 MiB allocation reported by mallinfo(arena+hblkhd)
        464438 MiB available memory on the node where the printing process lives
     GPU memory used/free/total (MiB): 31429 / 33539 / 64969
------------------
     ethr =  3.93E-03,  avg # of iterations =  2.0

     negative rho (up, down):  3.780E-02 0.000E+00

     total cpu time spent up to now is       55.2 secs

     total energy              =   -9092.52648598 Ry
     estimated scf accuracy    <      65.50264699 Ry
[tb_dev] Currently allocated     2.41E+01 Mbytes, locked:    0 /   6
[tb_pin] Currently allocated     0.00E+00 Mbytes, locked:    0 /   0

     iteration #  6     ecut=    90.00 Ry     beta= 0.20
     Davidson diagonalization with overlap

---- Real-time Memory Report at c_bands before calling an iterative solver
         10619 MiB given to the printing process from OS
         -1965 MiB allocation reported by mallinfo(arena+hblkhd)
        464248 MiB available memory on the node where the printing process lives
     GPU memory used/free/total (MiB): 31429 / 33539 / 64969
------------------
     ethr =  3.93E-03,  avg # of iterations =  2.0

     negative rho (up, down):  2.667E-02 0.000E+00

     total cpu time spent up to now is       58.7 secs

     total energy              =   -9098.13947189 Ry
     estimated scf accuracy    <       4.73704745 Ry
[tb_dev] Currently allocated     2.41E+01 Mbytes, locked:    0 /   6
[tb_pin] Currently allocated     0.00E+00 Mbytes, locked:    0 /   0

     iteration #  7     ecut=    90.00 Ry     beta= 0.20
     Davidson diagonalization with overlap

---- Real-time Memory Report at c_bands before calling an iterative solver
         10643 MiB given to the printing process from OS
         -1942 MiB allocation reported by mallinfo(arena+hblkhd)
        464154 MiB available memory on the node where the printing process lives
     GPU memory used/free/total (MiB): 31429 / 33539 / 64969
------------------
     ethr =  3.40E-04,  avg # of iterations = 16.0

     negative rho (up, down):  2.902E-02 0.000E+00

     total cpu time spent up to now is       65.0 secs

     total energy              =   -9096.47450267 Ry
     estimated scf accuracy    <     103.36665298 Ry
[tb_dev] Currently allocated     2.41E+01 Mbytes, locked:    0 /   6
[tb_pin] Currently allocated     0.00E+00 Mbytes, locked:    0 /   0

     iteration #  8     ecut=    90.00 Ry     beta= 0.20
     Davidson diagonalization with overlap

---- Real-time Memory Report at c_bands before calling an iterative solver
         10666 MiB given to the printing process from OS
         -1918 MiB allocation reported by mallinfo(arena+hblkhd)
        464107 MiB available memory on the node where the printing process lives
     GPU memory used/free/total (MiB): 31431 / 33537 / 64969
------------------
     ethr =  3.40E-04,  avg # of iterations =  9.0

     negative rho (up, down):  3.462E-02 0.000E+00

     total cpu time spent up to now is       70.4 secs

     total energy              =   -9090.72698638 Ry
     estimated scf accuracy    <      32.29243717 Ry
[tb_dev] Currently allocated     2.41E+01 Mbytes, locked:    0 /   6
[tb_pin] Currently allocated     0.00E+00 Mbytes, locked:    0 /   0

     iteration #  9     ecut=    90.00 Ry     beta= 0.20
     Davidson diagonalization with overlap

---- Real-time Memory Report at c_bands before calling an iterative solver
         10690 MiB given to the printing process from OS
         -1895 MiB allocation reported by mallinfo(arena+hblkhd)
        464013 MiB available memory on the node where the printing process lives
     GPU memory used/free/total (MiB): 32185 / 32783 / 64969
------------------
     ethr =  3.40E-04,  avg # of iterations = 13.0

     negative rho (up, down):  3.480E-02 0.000E+00

     total cpu time spent up to now is       76.4 secs

     total energy              =   -9096.72960235 Ry
     estimated scf accuracy    <       8.80882277 Ry
[tb_dev] Currently allocated     2.41E+01 Mbytes, locked:    0 /   6
[tb_pin] Currently allocated     0.00E+00 Mbytes, locked:    0 /   0

     iteration # 10     ecut=    90.00 Ry     beta= 0.20
     Davidson diagonalization with overlap

---- Real-time Memory Report at c_bands before calling an iterative solver
         10713 MiB given to the printing process from OS
         -1871 MiB allocation reported by mallinfo(arena+hblkhd)
        463871 MiB available memory on the node where the printing process lives
     GPU memory used/free/total (MiB): 32185 / 32783 / 64969
------------------
     ethr =  3.40E-04,  avg # of iterations =  1.0

     negative rho (up, down):  3.227E-02 0.000E+00

     total cpu time spent up to now is       79.9 secs

     total energy              =   -9094.60813280 Ry
     estimated scf accuracy    <       9.26512202 Ry
[tb_dev] Currently allocated     2.41E+01 Mbytes, locked:    0 /   6
[tb_pin] Currently allocated     0.00E+00 Mbytes, locked:    0 /   0

     iteration # 11     ecut=    90.00 Ry     beta= 0.20
     Davidson diagonalization with overlap

---- Real-time Memory Report at c_bands before calling an iterative solver
         10713 MiB given to the printing process from OS
         -1871 MiB allocation reported by mallinfo(arena+hblkhd)
        464062 MiB available memory on the node where the printing process lives
     GPU memory used/free/total (MiB): 32185 / 32783 / 64969
------------------
     ethr =  3.40E-04,  avg # of iterations =  2.0

     negative rho (up, down):  3.320E-02 0.000E+00

     total cpu time spent up to now is       83.5 secs

     total energy              =   -9095.90369836 Ry
     estimated scf accuracy    <       1.58012639 Ry
[tb_dev] Currently allocated     2.41E+01 Mbytes, locked:    0 /   6
[tb_pin] Currently allocated     0.00E+00 Mbytes, locked:    0 /   0

     iteration # 12     ecut=    90.00 Ry     beta= 0.20
     Davidson diagonalization with overlap

---- Real-time Memory Report at c_bands before calling an iterative solver
         10714 MiB given to the printing process from OS
         -1871 MiB allocation reported by mallinfo(arena+hblkhd)
        463918 MiB available memory on the node where the printing process lives
     GPU memory used/free/total (MiB): 32185 / 32783 / 64969
------------------
     ethr =  1.14E-04,  avg # of iterations =  2.0

     negative rho (up, down):  3.324E-02 0.000E+00

     total cpu time spent up to now is       87.1 secs

     total energy              =   -9096.03880645 Ry
     estimated scf accuracy    <       0.59881979 Ry
[tb_dev] Currently allocated     2.41E+01 Mbytes, locked:    0 /   6
[tb_pin] Currently allocated     0.00E+00 Mbytes, locked:    0 /   0

     iteration # 13     ecut=    90.00 Ry     beta= 0.20
     Davidson diagonalization with overlap

---- Real-time Memory Report at c_bands before calling an iterative solver
         10714 MiB given to the printing process from OS
         -1871 MiB allocation reported by mallinfo(arena+hblkhd)
        463918 MiB available memory on the node where the printing process lives
     GPU memory used/free/total (MiB): 32185 / 32783 / 64969
------------------
     ethr =  4.30E-05,  avg # of iterations = 20.0

     negative rho (up, down):  3.738E-02 0.000E+00

     total cpu time spent up to now is       92.2 secs

     total energy              =   -9095.24300928 Ry
     estimated scf accuracy    <       3.54351954 Ry
[tb_dev] Currently allocated     2.41E+01 Mbytes, locked:    0 /   6
[tb_pin] Currently allocated     0.00E+00 Mbytes, locked:    0 /   0

     iteration # 14     ecut=    90.00 Ry     beta= 0.20
     Davidson diagonalization with overlap

---- Real-time Memory Report at c_bands before calling an iterative solver
         10714 MiB given to the printing process from OS
         -1871 MiB allocation reported by mallinfo(arena+hblkhd)
        463918 MiB available memory on the node where the printing process lives
     GPU memory used/free/total (MiB): 32185 / 32783 / 64969
------------------
     c_bands:  2 eigenvalues not converged
     ethr =  4.30E-05,  avg # of iterations = 20.0

     negative rho (up, down):  3.714E-02 0.000E+00

     total cpu time spent up to now is       97.8 secs

     total energy              =   -9095.78845130 Ry
     estimated scf accuracy    <       1.53761723 Ry
[tb_dev] Currently allocated     2.41E+01 Mbytes, locked:    0 /   6
[tb_pin] Currently allocated     0.00E+00 Mbytes, locked:    0 /   0

     iteration # 15     ecut=    90.00 Ry     beta= 0.20
     Davidson diagonalization with overlap

---- Real-time Memory Report at c_bands before calling an iterative solver
         10714 MiB given to the printing process from OS
         -1871 MiB allocation reported by mallinfo(arena+hblkhd)
        463871 MiB available memory on the node where the printing process lives
     GPU memory used/free/total (MiB): 33007 / 31961 / 64969
------------------
     ethr =  4.30E-05,  avg # of iterations =  2.0

     negative rho (up, down):  3.791E-02 0.000E+00

     total cpu time spent up to now is      101.4 secs

     total energy              =   -9095.85376835 Ry
     estimated scf accuracy    <       0.11084081 Ry
[tb_dev] Currently allocated     2.41E+01 Mbytes, locked:    0 /   6
[tb_pin] Currently allocated     0.00E+00 Mbytes, locked:    0 /   0

     iteration # 16     ecut=    90.00 Ry     beta= 0.20
     Davidson diagonalization with overlap

---- Real-time Memory Report at c_bands before calling an iterative solver
         10714 MiB given to the printing process from OS
         -1871 MiB allocation reported by mallinfo(arena+hblkhd)
        463918 MiB available memory on the node where the printing process lives
     GPU memory used/free/total (MiB): 33007 / 31961 / 64969
------------------
     c_bands:  3 eigenvalues not converged
     ethr =  7.96E-06,  avg # of iterations = 20.0

     negative rho (up, down):  3.874E-02 0.000E+00

     total cpu time spent up to now is      106.2 secs

     total energy              =   -9095.86961115 Ry
     estimated scf accuracy    <       0.03456686 Ry
[tb_dev] Currently allocated     2.41E+01 Mbytes, locked:    0 /   6
[tb_pin] Currently allocated     0.00E+00 Mbytes, locked:    0 /   0

     iteration # 17     ecut=    90.00 Ry     beta= 0.20
     Davidson diagonalization with overlap

---- Real-time Memory Report at c_bands before calling an iterative solver
         10714 MiB given to the printing process from OS
         -1871 MiB allocation reported by mallinfo(arena+hblkhd)
        463870 MiB available memory on the node where the printing process lives
     GPU memory used/free/total (MiB): 33007 / 31961 / 64969
------------------
     c_bands:  2 eigenvalues not converged
     ethr =  2.48E-06,  avg # of iterations = 20.0

     negative rho (up, down):  3.935E-02 0.000E+00

     total cpu time spent up to now is      110.6 secs

     total energy              =   -9095.87275715 Ry
     estimated scf accuracy    <       0.00723467 Ry
[tb_dev] Currently allocated     2.41E+01 Mbytes, locked:    0 /   6
[tb_pin] Currently allocated     0.00E+00 Mbytes, locked:    0 /   0

     iteration # 18     ecut=    90.00 Ry     beta= 0.20
     Davidson diagonalization with overlap

---- Real-time Memory Report at c_bands before calling an iterative solver
         10714 MiB given to the printing process from OS
         -1871 MiB allocation reported by mallinfo(arena+hblkhd)
        464061 MiB available memory on the node where the printing process lives
     GPU memory used/free/total (MiB): 33221 / 31747 / 64969
------------------
     c_bands:  1 eigenvalues not converged
     ethr =  5.20E-07,  avg # of iterations = 20.0

     negative rho (up, down):  3.984E-02 0.000E+00

     total cpu time spent up to now is      115.2 secs

     total energy              =   -9095.87310793 Ry
     estimated scf accuracy    <       0.00316830 Ry
[tb_dev] Currently allocated     2.41E+01 Mbytes, locked:    0 /   6
[tb_pin] Currently allocated     0.00E+00 Mbytes, locked:    0 /   0

     iteration # 19     ecut=    90.00 Ry     beta= 0.20
     Davidson diagonalization with overlap

---- Real-time Memory Report at c_bands before calling an iterative solver
         10714 MiB given to the printing process from OS
         -1871 MiB allocation reported by mallinfo(arena+hblkhd)
        463870 MiB available memory on the node where the printing process lives
     GPU memory used/free/total (MiB): 33221 / 31747 / 64969
------------------
     c_bands:  1 eigenvalues not converged
     ethr =  2.28E-07,  avg # of iterations = 20.0

     negative rho (up, down):  4.023E-02 0.000E+00

     total cpu time spent up to now is      119.7 secs

     total energy              =   -9095.87316799 Ry
     estimated scf accuracy    <       0.00154450 Ry
[tb_dev] Currently allocated     2.41E+01 Mbytes, locked:    0 /   6
[tb_pin] Currently allocated     0.00E+00 Mbytes, locked:    0 /   0

     iteration # 20     ecut=    90.00 Ry     beta= 0.20
     Davidson diagonalization with overlap

---- Real-time Memory Report at c_bands before calling an iterative solver
         10714 MiB given to the printing process from OS
         -1871 MiB allocation reported by mallinfo(arena+hblkhd)
        463870 MiB available memory on the node where the printing process lives
     GPU memory used/free/total (MiB): 33221 / 31747 / 64969
------------------
     ethr =  1.11E-07,  avg # of iterations =  2.0

     negative rho (up, down):  4.038E-02 0.000E+00

     total cpu time spent up to now is      123.3 secs

     total energy              =   -9095.87330773 Ry
     estimated scf accuracy    <       0.00031758 Ry
[tb_dev] Currently allocated     2.41E+01 Mbytes, locked:    0 /   6
[tb_pin] Currently allocated     0.00E+00 Mbytes, locked:    0 /   0

     iteration # 21     ecut=    90.00 Ry     beta= 0.20
     Davidson diagonalization with overlap

---- Real-time Memory Report at c_bands before calling an iterative solver
         10714 MiB given to the printing process from OS
         -1871 MiB allocation reported by mallinfo(arena+hblkhd)
        463918 MiB available memory on the node where the printing process lives
     GPU memory used/free/total (MiB): 33221 / 31747 / 64969
------------------
     ethr =  2.28E-08,  avg # of iterations =  4.0

     negative rho (up, down):  4.048E-02 0.000E+00

     total cpu time spent up to now is      127.2 secs

     total energy              =   -9095.87335053 Ry
     estimated scf accuracy    <       0.00013316 Ry
[tb_dev] Currently allocated     2.41E+01 Mbytes, locked:    0 /   6
[tb_pin] Currently allocated     0.00E+00 Mbytes, locked:    0 /   0

     iteration # 22     ecut=    90.00 Ry     beta= 0.20
     Davidson diagonalization with overlap

---- Real-time Memory Report at c_bands before calling an iterative solver
         10714 MiB given to the printing process from OS
         -1871 MiB allocation reported by mallinfo(arena+hblkhd)
        463870 MiB available memory on the node where the printing process lives
     GPU memory used/free/total (MiB): 33221 / 31747 / 64969
------------------
     ethr =  9.57E-09,  avg # of iterations =  4.0

     negative rho (up, down):  4.055E-02 0.000E+00

     total cpu time spent up to now is      131.0 secs

     total energy              =   -9095.87336600 Ry
     estimated scf accuracy    <       0.00005641 Ry
[tb_dev] Currently allocated     2.41E+01 Mbytes, locked:    0 /   6
[tb_pin] Currently allocated     0.00E+00 Mbytes, locked:    0 /   0

     iteration # 23     ecut=    90.00 Ry     beta= 0.20
     Davidson diagonalization with overlap

---- Real-time Memory Report at c_bands before calling an iterative solver
         10714 MiB given to the printing process from OS
         -1871 MiB allocation reported by mallinfo(arena+hblkhd)
        463870 MiB available memory on the node where the printing process lives
     GPU memory used/free/total (MiB): 33221 / 31747 / 64969
------------------
     ethr =  4.05E-09,  avg # of iterations =  4.0

     negative rho (up, down):  4.060E-02 0.000E+00

     total cpu time spent up to now is      135.0 secs

     total energy              =   -9095.87337607 Ry
     estimated scf accuracy    <       0.00002451 Ry
[tb_dev] Currently allocated     2.41E+01 Mbytes, locked:    0 /   6
[tb_pin] Currently allocated     0.00E+00 Mbytes, locked:    0 /   0

     iteration # 24     ecut=    90.00 Ry     beta= 0.20
     Davidson diagonalization with overlap

---- Real-time Memory Report at c_bands before calling an iterative solver
         10714 MiB given to the printing process from OS
         -1871 MiB allocation reported by mallinfo(arena+hblkhd)
        463870 MiB available memory on the node where the printing process lives
     GPU memory used/free/total (MiB): 33221 / 31747 / 64969
------------------
     ethr =  1.76E-09,  avg # of iterations =  2.0

     negative rho (up, down):  4.063E-02 0.000E+00

     total cpu time spent up to now is      138.6 secs

     total energy              =   -9095.87337679 Ry
     estimated scf accuracy    <       0.00001242 Ry
[tb_dev] Currently allocated     2.41E+01 Mbytes, locked:    0 /   6
[tb_pin] Currently allocated     0.00E+00 Mbytes, locked:    0 /   0

     iteration # 25     ecut=    90.00 Ry     beta= 0.20
     Davidson diagonalization with overlap

---- Real-time Memory Report at c_bands before calling an iterative solver
         10714 MiB given to the printing process from OS
         -1871 MiB allocation reported by mallinfo(arena+hblkhd)
        463870 MiB available memory on the node where the printing process lives
     GPU memory used/free/total (MiB): 33221 / 31747 / 64969
------------------
     ethr =  8.92E-10,  avg # of iterations =  2.0

     negative rho (up, down):  4.065E-02 0.000E+00

     total cpu time spent up to now is      142.3 secs

     total energy              =   -9095.87337826 Ry
     estimated scf accuracy    <       0.00000506 Ry
[tb_dev] Currently allocated     2.41E+01 Mbytes, locked:    0 /   6
[tb_pin] Currently allocated     0.00E+00 Mbytes, locked:    0 /   0

     iteration # 26     ecut=    90.00 Ry     beta= 0.20
     Davidson diagonalization with overlap

---- Real-time Memory Report at c_bands before calling an iterative solver
         10714 MiB given to the printing process from OS
         -1871 MiB allocation reported by mallinfo(arena+hblkhd)
        463870 MiB available memory on the node where the printing process lives
     GPU memory used/free/total (MiB): 33221 / 31747 / 64969
------------------
     ethr =  3.64E-10,  avg # of iterations =  2.0

     negative rho (up, down):  4.066E-02 0.000E+00

     total cpu time spent up to now is      146.1 secs

     total energy              =   -9095.87337903 Ry
     estimated scf accuracy    <       0.00000156 Ry
[tb_dev] Currently allocated     2.41E+01 Mbytes, locked:    0 /   6
[tb_pin] Currently allocated     0.00E+00 Mbytes, locked:    0 /   0

     iteration # 27     ecut=    90.00 Ry     beta= 0.20
     Davidson diagonalization with overlap

---- Real-time Memory Report at c_bands before calling an iterative solver
         10714 MiB given to the printing process from OS
         -1871 MiB allocation reported by mallinfo(arena+hblkhd)
        463870 MiB available memory on the node where the printing process lives
     GPU memory used/free/total (MiB): 33221 / 31747 / 64969
------------------
     ethr =  1.12E-10,  avg # of iterations =  2.0

     negative rho (up, down):  4.067E-02 0.000E+00

     total cpu time spent up to now is      149.8 secs

     total energy              =   -9095.87337917 Ry
     estimated scf accuracy    <       0.00000057 Ry
[tb_dev] Currently allocated     2.41E+01 Mbytes, locked:    0 /   6
[tb_pin] Currently allocated     0.00E+00 Mbytes, locked:    0 /   0

     iteration # 28     ecut=    90.00 Ry     beta= 0.20
     Davidson diagonalization with overlap

---- Real-time Memory Report at c_bands before calling an iterative solver
         10714 MiB given to the printing process from OS
         -1871 MiB allocation reported by mallinfo(arena+hblkhd)
        463870 MiB available memory on the node where the printing process lives
     GPU memory used/free/total (MiB): 33221 / 31747 / 64969
------------------
     ethr =  4.11E-11,  avg # of iterations =  4.0

     negative rho (up, down):  4.068E-02 0.000E+00

     total cpu time spent up to now is      154.2 secs

     total energy              =   -9095.87337933 Ry
     estimated scf accuracy    <       0.00000031 Ry
[tb_dev] Currently allocated     2.41E+01 Mbytes, locked:    0 /   6
[tb_pin] Currently allocated     0.00E+00 Mbytes, locked:    0 /   0

     iteration # 29     ecut=    90.00 Ry     beta= 0.20
     Davidson diagonalization with overlap

---- Real-time Memory Report at c_bands before calling an iterative solver
         10714 MiB given to the printing process from OS
         -1871 MiB allocation reported by mallinfo(arena+hblkhd)
        463870 MiB available memory on the node where the printing process lives
     GPU memory used/free/total (MiB): 33221 / 31747 / 64969
------------------
     ethr =  2.22E-11,  avg # of iterations =  2.0

     negative rho (up, down):  4.068E-02 0.000E+00

[...]
     atom  143 type  1   force =     0.00002202    0.00000264   -0.00002781
     atom  144 type  1   force =     0.00000063    0.00000053   -0.00001733
     atom  145 type  1   force =     0.00001677   -0.00000325    0.00000047
     atom  146 type  1   force =     0.00004099    0.00002684   -0.00002028
     atom  147 type  1   force =    -0.00000618   -0.00001060    0.00001938
     atom  148 type  1   force =     0.00002321    0.00000790    0.00001888
     atom  149 type  1   force =     0.00000794   -0.00001249   -0.00001970
     atom  150 type  4   force =    -0.00001934   -0.00001055    0.00002078
     atom  151 type  2   force =    -0.00000784   -0.00000905   -0.00001307
     atom  152 type  2   force =    -0.00000673   -0.00000131   -0.00001034
     atom  153 type  2   force =    -0.00000194   -0.00000236   -0.00000789
     atom  154 type  2   force =    -0.00000770   -0.00000924   -0.00001095
     atom  155 type  2   force =    -0.00000705   -0.00000518   -0.00000453
     atom  156 type  2   force =     0.00000277    0.00000302    0.00000300
     atom  157 type  2   force =    -0.00000968   -0.00000660   -0.00000414
     atom  158 type  2   force =    -0.00000035   -0.00001038   -0.00000547
     atom  159 type  2   force =    -0.00000712    0.00000409   -0.00000244
     atom  160 type  2   force =    -0.00000306   -0.00000167   -0.00001423
     atom  161 type  2   force =    -0.00000926   -0.00000784   -0.00001763
     atom  162 type  2   force =     0.00000012   -0.00000502   -0.00001147
     atom  163 type  2   force =     0.00000277    0.00000377   -0.00000119
     atom  164 type  2   force =    -0.00000613   -0.00000024   -0.00000956
     atom  165 type  3   force =     0.00002527    0.00001559    0.00001999
     atom  166 type  3   force =     0.00001735    0.00000576   -0.00003165
     atom  167 type  1   force =     0.00001483   -0.00000416    0.00003249
     atom  168 type  1   force =    -0.00000172    0.00000094    0.00001020
     atom  169 type  1   force =     0.00000428    0.00000659   -0.00000344
     atom  170 type  1   force =     0.00000875    0.00000080   -0.00000679
     atom  171 type  1   force =     0.00000692    0.00000156   -0.00001116
     atom  172 type  1   force =    -0.00000318    0.00000196    0.00000827
     atom  173 type  1   force =     0.00003054   -0.00001274    0.00001313
     atom  174 type  1   force =    -0.00000424   -0.00000673    0.00002013
     atom  175 type  4   force =     0.00000022    0.00001856    0.00000052
     atom  176 type  2   force =     0.00001006   -0.00000457    0.00000527
     atom  177 type  2   force =     0.00001240    0.00000131    0.00000259
     atom  178 type  2   force =     0.00000691   -0.00000013   -0.00000075
     atom  179 type  2   force =    -0.00000153   -0.00000729    0.00000934
     atom  180 type  2   force =    -0.00001328   -0.00001187    0.00001704
     atom  181 type  2   force =    -0.00000080   -0.00000343    0.00001698
     atom  182 type  2   force =     0.00000193    0.00000171    0.00001655
     atom  183 type  2   force =     0.00001502    0.00001232    0.00000181
     atom  184 type  2   force =    -0.00001163    0.00000403    0.00001158
     atom  185 type  2   force =     0.00000996    0.00000937    0.00000322
     atom  186 type  2   force =    -0.00001787   -0.00000464    0.00002640
     atom  187 type  2   force =    -0.00001401   -0.00000932    0.00001743
     atom  188 type  2   force =    -0.00000919   -0.00000115    0.00000736
     atom  189 type  2   force =    -0.00001607   -0.00000695    0.00001711
     atom  190 type  3   force =    -0.00000050   -0.00000383    0.00000118
     atom  191 type  3   force =     0.00004664    0.00001828    0.00001801
     atom  192 type  1   force =    -0.00004934    0.00000834   -0.00000580
     atom  193 type  1   force =    -0.00000137    0.00000951    0.00002960
     atom  194 type  1   force =    -0.00001417   -0.00000022   -0.00001378
     atom  195 type  1   force =     0.00002958   -0.00001112   -0.00000257
     atom  196 type  1   force =     0.00001924    0.00003804    0.00000358
     atom  197 type  1   force =     0.00001371    0.00003645    0.00002595
     atom  198 type  1   force =     0.00003930   -0.00002446    0.00000770
     atom  199 type  1   force =     0.00000631    0.00000448    0.00002115
     atom  200 type  4   force =    -0.00000866    0.00001030    0.00002203
     atom  201 type  2   force =     0.00000410    0.00000547   -0.00001258
     atom  202 type  2   force =     0.00000315    0.00000541   -0.00001037
     atom  203 type  2   force =    -0.00000340    0.00000719   -0.00001644
     atom  204 type  2   force =    -0.00000047    0.00000918   -0.00000212
     atom  205 type  2   force =    -0.00000161   -0.00000233    0.00000177
     atom  206 type  2   force =    -0.00000365    0.00000491   -0.00001201
     atom  207 type  2   force =    -0.00000258    0.00000190   -0.00000249
     atom  208 type  2   force =     0.00000623    0.00000554    0.00000084
     atom  209 type  2   force =    -0.00000527    0.00000585   -0.00000323
     atom  210 type  2   force =     0.00000154    0.00000491   -0.00001133
     atom  211 type  2   force =     0.00000375   -0.00000165   -0.00000188
     atom  212 type  2   force =     0.00000729    0.00000107   -0.00001288
     atom  213 type  2   force =    -0.00001053    0.00000306   -0.00000101
     atom  214 type  2   force =     0.00000466   -0.00000138   -0.00000002
     atom  215 type  3   force =     0.00002549   -0.00003152   -0.00003680
     atom  216 type  3   force =    -0.00001767    0.00002129   -0.00005137
     atom  217 type  1   force =    -0.00000573   -0.00001901    0.00000044
     atom  218 type  1   force =     0.00000314    0.00000070    0.00000095
     atom  219 type  1   force =    -0.00000082   -0.00000008   -0.00001307
     atom  220 type  1   force =    -0.00000551   -0.00000813   -0.00001473
     atom  221 type  1   force =    -0.00000008    0.00000541   -0.00000722
     atom  222 type  1   force =    -0.00000018   -0.00001387    0.00001760
     atom  223 type  1   force =    -0.00001530    0.00001495    0.00000963
     atom  224 type  1   force =     0.00000122    0.00001256    0.00002667
     atom  225 type  4   force =    -0.00000315   -0.00000100   -0.00001526
     atom  226 type  2   force =    -0.00000028   -0.00000411    0.00000852
     atom  227 type  2   force =     0.00000052   -0.00000619    0.00000019
     atom  228 type  2   force =    -0.00000064   -0.00000666   -0.00000073
     atom  229 type  2   force =     0.00000536    0.00000982    0.00000954
     atom  230 type  2   force =    -0.00001221    0.00000351    0.00000943
     atom  231 type  2   force =    -0.00000238   -0.00000338    0.00000903
     atom  232 type  2   force =    -0.00000060    0.00000218    0.00002751
     atom  233 type  2   force =     0.00001198    0.00002103    0.00001428
     atom  234 type  2   force =    -0.00000100   -0.00000503    0.00001204
     atom  235 type  2   force =    -0.00000114    0.00000509    0.00000395
     atom  236 type  2   force =    -0.00000271    0.00000369    0.00001169
     atom  237 type  2   force =    -0.00000077   -0.00000670    0.00001031
     atom  238 type  2   force =     0.00000491    0.00000693    0.00002092
     atom  239 type  2   force =     0.00000722   -0.00000273   -0.00000062
     atom  240 type  3   force =    -0.00009109   -0.00003934   -0.00006819
     atom  241 type  3   force =    -0.00003021   -0.00002644   -0.00001013
     atom  242 type  1   force =     0.00001982   -0.00002277    0.00001935
     atom  243 type  1   force =    -0.00002536   -0.00001674   -0.00004803
     atom  244 type  1   force =    -0.00003049    0.00001543   -0.00000202
     atom  245 type  1   force =     0.00000014   -0.00001383    0.00000227
     atom  246 type  1   force =    -0.00002125    0.00000006   -0.00000060
     atom  247 type  1   force =    -0.00003834   -0.00001624    0.00001050
     atom  248 type  1   force =    -0.00004147    0.00003050    0.00001562
     atom  249 type  1   force =    -0.00000803   -0.00001000    0.00003179
     atom  250 type  4   force =     0.00000230    0.00001703    0.00001696
     atom  251 type  2   force =     0.00000783    0.00000331   -0.00000649
     atom  252 type  2   force =     0.00001486    0.00000120   -0.00001227
     atom  253 type  2   force =     0.00000448   -0.00000214   -0.00001422
     atom  254 type  2   force =     0.00000173   -0.00000395    0.00000607
     atom  255 type  2   force =     0.00000250   -0.00000405    0.00000980
     atom  256 type  2   force =     0.00000025   -0.00000349    0.00000151
     atom  257 type  2   force =     0.00000238   -0.00000240   -0.00000105
     atom  258 type  2   force =     0.00000920    0.00000387   -0.00000268
     atom  259 type  2   force =     0.00000828    0.00000226   -0.00000611
     atom  260 type  2   force =     0.00000448   -0.00000166   -0.00000705
     atom  261 type  2   force =     0.00000165    0.00000012   -0.00000496
     atom  262 type  2   force =     0.00000092   -0.00000320   -0.00000159
     atom  263 type  2   force =    -0.00000537   -0.00000828   -0.00000158
     atom  264 type  2   force =     0.00000207    0.00000154    0.00000079
     atom  265 type  3   force =    -0.00006680   -0.00002475    0.00001705
     atom  266 type  3   force =     0.00000694    0.00000375   -0.00003492
     atom  267 type  1   force =    -0.00000629   -0.00001045    0.00000522
     atom  268 type  1   force =     0.00000905    0.00000443    0.00001191
     atom  269 type  1   force =     0.00000758    0.00000151   -0.00001030
     atom  270 type  1   force =    -0.00000551    0.00001345    0.00000131
     atom  271 type  1   force =    -0.00000341   -0.00001596   -0.00000385
     atom  272 type  1   force =    -0.00000536    0.00001237    0.00002092
     atom  273 type  1   force =    -0.00000989   -0.00002808    0.00001356
     atom  274 type  1   force =     0.00000722   -0.00000135    0.00001986
     atom  275 type  4   force =    -0.00000608    0.00000106    0.00000466
     atom  276 type  2   force =    -0.00000080    0.00000930    0.00000058
     atom  277 type  2   force =    -0.00000216   -0.00000724    0.00000468
     atom  278 type  2   force =    -0.00001593    0.00001328   -0.00000325
     atom  279 type  2   force =     0.00000001    0.00000404    0.00000810
     atom  280 type  2   force =     0.00000863   -0.00000681    0.00001169
     atom  281 type  2   force =     0.00000520   -0.00000964    0.00001524
     atom  282 type  2   force =     0.00001368   -0.00001204    0.00000861
     atom  283 type  2   force =     0.00000675    0.00001233    0.00002642
     atom  284 type  2   force =    -0.00001671   -0.00000147    0.00001186
     atom  285 type  2   force =     0.00002709    0.00000694    0.00000990
     atom  286 type  2   force =    -0.00001899    0.00001248    0.00002613
     atom  287 type  2   force =    -0.00000569   -0.00002273    0.00002426
     atom  288 type  2   force =    -0.00000273    0.00000522   -0.00000735
     atom  289 type  2   force =     0.00001187   -0.00000191    0.00000162
     atom  290 type  3   force =     0.00000806   -0.00007251   -0.00003163
     atom  291 type  3   force =     0.00005287   -0.00002732   -0.00023576
     atom  292 type  1   force =    -0.00001380   -0.00001934    0.00001241
     atom  293 type  1   force =     0.00000078   -0.00000483   -0.00001149
     atom  294 type  1   force =     0.00000482   -0.00000261   -0.00001916
     atom  295 type  1   force =     0.00000805   -0.00002163   -0.00002128
     atom  296 type  1   force =    -0.00000502   -0.00001348   -0.00000105
     atom  297 type  1   force =     0.00000704   -0.00001008    0.00001210
     atom  298 type  1   force =     0.00000180    0.00000762    0.00001015
     atom  299 type  1   force =     0.00000387    0.00000721   -0.00001629
     atom  300 type  4   force =     0.00002949    0.00000028    0.00000287

     Total force =     1.038492     Total SCF correction =     0.000522


     Computing stress (Cartesian axis) and pressure


     negative rho (up, down):  4.070E-02 0.000E+00
          total   stress  (Ry/bohr**3)                   (kbar)     P=        3.92
   0.00003992   0.00000008   0.00000586            5.87        0.01        0.86
   0.00000008   0.00004351   0.00002663            0.01        6.40        3.92
   0.00000586   0.00002663  -0.00000355            0.86        3.92       -0.52

     kinetic stress (kbar)   5334.11     -0.92     -0.41
                               -0.92   5333.48      4.20
                               -0.41      4.20   5326.57

     local   stress (kbar)-651814.86    -36.56    -57.17
                              -36.56-651944.62    111.26
                              -57.17    111.26 645506.50

     nonloc. stress (kbar)    958.20     -0.08     -0.46
                               -0.08    957.88     -0.09
                               -0.46     -0.09    954.15

     hartree stress (kbar) 326549.80     20.66     26.19
                               20.66 326597.94    -45.62
                               26.19    -45.62-320708.47

     exc-cor stress (kbar)  -1264.03     -0.09     -0.03
                               -0.09  -1263.87     -0.08
                               -0.03     -0.08  -1265.79

     corecor stress (kbar)   -292.86      0.01      0.01
                                0.01   -292.86     -0.02
                                0.01     -0.02   -292.74

     ewald   stress (kbar) 320535.51     16.99     32.74
                               16.99 320618.44    -65.73
                               32.74    -65.73-329520.75

     hubbard stress (kbar)      0.00      0.00      0.00
                                0.00      0.00      0.00
                                0.00      0.00      0.00

     DFT-D   stress (kbar)      0.00      0.00      0.00
                                0.00      0.00      0.00
                                0.00      0.00      0.00

     XDM     stress (kbar)      0.00      0.00      0.00
                                0.00      0.00      0.00
                                0.00      0.00      0.00

     dft-nl  stress (kbar)      0.00      0.00      0.00
                                0.00      0.00      0.00
                                0.00      0.00      0.00

     TS-vdW  stress (kbar)      0.00      0.00      0.00
                                0.00      0.00      0.00
                                0.00      0.00      0.00

     MDB     stress (kbar)      0.00      0.00      0.00
                                0.00      0.00      0.00
                                0.00      0.00      0.00

     3D-RISM stress (kbar)      0.00      0.00      0.00
                                0.00      0.00      0.00
                                0.00      0.00      0.00


     Writing all to output data dir ./tmp/pwscf.save/
 
     init_run     :     29.66s CPU     34.57s WALL (       1 calls)
     electrons    :    119.28s CPU    126.66s WALL (       1 calls)
     forces       :      3.13s CPU      3.34s WALL (       1 calls)
     stress       :     81.00s CPU     83.48s WALL (       1 calls)

     Called by init_run:
     wfcinit      :      3.46s CPU      5.49s WALL (       1 calls)
                                        5.49s GPU  (       1 calls)
     wfcinit:atom :      0.01s CPU      0.01s WALL (       1 calls)
                                        0.01s GPU  (       1 calls)
     wfcinit:wfcr :      1.24s CPU      2.51s WALL (       1 calls)
                                        2.51s GPU  (       1 calls)
     potinit      :     16.15s CPU     16.43s WALL (       1 calls)
     hinit0       :      7.73s CPU      7.95s WALL (       1 calls)

     Called by electrons:
     c_bands      :     76.23s CPU     78.18s WALL (      30 calls)
     sum_band     :     16.40s CPU     16.87s WALL (      30 calls)
     v_of_rho     :      3.29s CPU      3.48s WALL (      31 calls)
     v_h          :      1.79s CPU      1.91s WALL (      31 calls)
     v_xc         :      1.62s CPU      1.70s WALL (      33 calls)
     newd         :      2.50s CPU      4.99s WALL (      31 calls)
                                        4.99s GPU  (      31 calls)
     PAW_pot      :      3.37s CPU      3.39s WALL (      31 calls)
     mix_rho      :      8.38s CPU      8.65s WALL (      30 calls)

     Called by c_bands:
     init_us_2    :      0.47s CPU      0.65s WALL (      61 calls)
     init_us_2:gp :      0.46s CPU      0.65s WALL (      61 calls)
     regterg      :     66.73s CPU     68.48s WALL (      30 calls)

     Called by sum_band:
     sum_band:wei :      0.01s CPU      0.01s WALL (      30 calls)
                                        0.01s GPU  (      30 calls)
     sum_band:loo :     12.91s CPU     13.30s WALL (      30 calls)
                                       13.30s GPU  (      30 calls)
     sum_band:buf :      1.95s CPU      1.96s WALL (      30 calls)
                                        1.96s GPU  (      30 calls)
     sum_band:ini :      0.24s CPU      0.48s WALL (      30 calls)
                                        0.48s GPU  (      30 calls)
     sum_band:cal :      2.14s CPU      2.21s WALL (      30 calls)
                                        2.21s GPU  (      30 calls)
     sum_band:bec :      0.21s CPU      0.21s WALL (      30 calls)
                                        0.21s GPU  (      30 calls)
     addusdens    :      2.14s CPU      2.20s WALL (      30 calls)
                                        2.20s GPU  (      30 calls)
     addusd:skk   :      0.45s CPU      0.46s WALL (     120 calls)
                                        0.46s GPU  (     120 calls)

     Called by *egterg:
     rdiaghg      :      6.45s CPU      6.62s WALL (     247 calls)
                                        6.62s GPU  (     247 calls)
     regterg:over :      4.21s CPU      4.29s WALL (     217 calls)
     regterg:upda :      2.33s CPU      2.38s WALL (     217 calls)
     regterg:last :      4.83s CPU      4.84s WALL (      72 calls)
     h_psi        :     42.28s CPU     44.78s WALL (     248 calls)
                                       44.78s GPU  (     248 calls)
     s_psi        :      1.13s CPU      5.29s WALL (     248 calls)
                                        5.14s GPU  (     248 calls)
     g_psi        :      0.00s CPU      0.24s WALL (     217 calls)
                                        0.22s GPU  (     217 calls)

     Called by h_psi:
     h_psi:calbec :      6.10s CPU      6.35s WALL (     248 calls)
                                        6.35s GPU  (     248 calls)
     vloc_psi     :     31.33s CPU     32.67s WALL (     248 calls)
                                       32.67s GPU  (     248 calls)
     add_vuspsi   :      0.51s CPU      5.54s WALL (     248 calls)
                                        5.52s GPU  (     248 calls)

     General routines
     calbec       :      8.65s CPU      9.10s WALL (     283 calls)
     fft          :      5.82s CPU      7.81s WALL (     359 calls)
                                        0.79s GPU  (     328 calls)
     ffts         :      3.02s CPU      3.57s WALL (      61 calls)
                                        0.06s GPU  (      30 calls)
     fftw         :     18.82s CPU     31.60s WALL (   17136 calls)
                                       31.37s GPU  (   17136 calls)
     interpolate  :      9.43s CPU     11.80s WALL (      31 calls)
 
     Parallel routines

     PAW routines
     PAW_pot      :      3.37s CPU      3.39s WALL (      31 calls)
 
     PWSCF        :   3m55.44s CPU   4m15.55s WALL

 
   This run was terminated on:  13:38:52  30Dec2023            

=------------------------------------------------------------------------------=
   JOB DONE.
=------------------------------------------------------------------------------=
