
     Program PWSCF v.7.2 starts on 30Dec2023 at 14: 8:26 

     This program is part of the open-source Quantum ESPRESSO suite
     for quantum simulation of materials; please cite
         "P. Giannozzi et al., J. Phys.:Condens. Matter 21 395502 (2009);
         "P. Giannozzi et al., J. Phys.:Condens. Matter 29 465901 (2017);
         "P. Giannozzi et al., J. Chem. Phys. 152 154105 (2020);
          URL http://www.quantum-espresso.org", 
     in publications or presentations arising from this work. More details at
     http://www.quantum-espresso.org/quote

     Parallel version (MPI & OpenMP), running on       4 processor cores
     Number of MPI processes:                 4
     Threads/MPI process:                     1

     MPI processes distributed on     1 nodes
     503984 MiB available memory on the printing compute node when the environment starts
 
     Reading input from input_0011.inp

     Current dimensions of program PWSCF are:
     Max number of different atomic species (ntypx) = 10
     Max number of k-points (npk) =  40000
     Max angular momentum in pseudopotentials (lmaxx) =  4
     file O.pbe-n-kjpaw_psl.0.1.UPF: wavefunction(s)  2P renormalized

     gamma-point specific algorithms are used
 
     R & G space division:  proc/nbgrp/npool/nimage =       4
     Subspace diagonalization in iterative solution of the eigenvalue problem:
     a serial algorithm will be used

 
     Parallelization info
     --------------------
     sticks:   dense  smooth     PW     G-vecs:    dense   smooth      PW
     Min        6485    4324   1079              2728975  1485363  185656
     Max        6486    4326   1080              2728990  1485382  185664
     Sum       25943   17301   4319             10915929  5941483  742635
 
     Using Slab Decomposition
 


     bravais-lattice index     =            0
     lattice parameter (alat)  =      32.3352  a.u.
     unit-cell volume          =   51510.8153 (a.u.)^3
     number of atoms/cell      =          300
     number of atomic types    =            4
     number of electrons       =      1392.00
     number of Kohn-Sham states=          835
     kinetic-energy cutoff     =      90.0000  Ry
     charge density cutoff     =     540.0000  Ry
     scf convergence threshold =      1.0E-07
     mixing beta               =       0.2000
     number of iterations used =            8  plain     mixing
     Exchange-correlation= SLA  PW   PBX  PBC
                           (   1   4   3   4   0   0   0)

     GPU acceleration is ACTIVE.
     GPU-aware MPI enabled


     GPU used by master process:

        Device Number: 0
        Device name: NVIDIA PG506-243
        Compute capability : 80
        Ratio of single to double precision performance  : 2
        Memory Clock Rate (KHz): 1593000
        Memory Bus Width (bits): 4096
        Peak Memory Bandwidth (GB/s): ******

     celldm(1)=  32.335181  celldm(2)=   0.000000  celldm(3)=   0.000000
     celldm(4)=   0.000000  celldm(5)=   0.000000  celldm(6)=   0.000000

     crystal axes: (cart. coord. in units of alat)
               a(1) = (   1.000000   0.000000   0.000000 )  
               a(2) = (  -0.333333   0.577350   0.000000 )  
               a(3) = (   0.000000  -0.000000   2.638962 )  

     reciprocal axes: (cart. coord. in units 2 pi/alat)
               b(1) = (  1.000000  0.577350  0.000000 )  
               b(2) = ( -0.000000  1.732051  0.000000 )  
               b(3) = (  0.000000 -0.000000  0.378937 )  


     PseudoPot. # 1 for N  read from file:
     /leonardo_scratch/large/userexternal/uraucci0/Li_Cr/PPS/N.pbe-n-radius_5.UPF
     MD5 check sum: 16739722b17309cd8fe442a2ace49922
     Pseudo is Ultrasoft + core correction, Zval =  5.0
     Generated using "atomic" code by A. Dal Corso  v.5.1
     Using radial grid of 1085 points,  4 beta functions with: 
                l(1) =   0
                l(2) =   0
                l(3) =   1
                l(4) =   1
     Q(r) pseudized with 0 coefficients 


     PseudoPot. # 2 for Li read from file:
     /leonardo_scratch/large/userexternal/uraucci0/Li_Cr/PPS/li_pbe_v1.4.uspp.F.UPF
     MD5 check sum: e912e257baa3777c20ea3d68f190483c
     Pseudo is Ultrasoft, Zval =  3.0
     Generated by new atomic code, or converted to UPF format
     Using radial grid of  751 points,  5 beta functions with: 
                l(1) =   0
                l(2) =   0
                l(3) =   0
                l(4) =   1
                l(5) =   1
     Q(r) pseudized with 10 coefficients,  rinner =    1.150   1.150   1.150


     PseudoPot. # 3 for Cr read from file:
     /leonardo_scratch/large/userexternal/uraucci0/Li_Cr/PPS/cr_pbe_v1.5.uspp.F.UPF
     MD5 check sum: 0d52af634a40206e4dee301ad30da4bf
     Pseudo is Ultrasoft + core correction, Zval = 14.0
     Generated by new atomic code, or converted to UPF format
     Using radial grid of  857 points,  6 beta functions with: 
                l(1) =   0
                l(2) =   0
                l(3) =   1
                l(4) =   1
                l(5) =   2
                l(6) =   2
     Q(r) pseudized with  8 coefficients,  rinner =    0.950   0.950   0.950
                                                       0.950   0.950

     PseudoPot. # 4 for O  read from file:
     /leonardo_scratch/large/userexternal/uraucci0/Li_Cr/PPS/O.pbe-n-kjpaw_psl.0.1.UPF
     MD5 check sum: 0234752ac141de4415c5fc33072bef88
     Pseudo is Projector augmented-wave + core cor, Zval =  6.0
     Generated using "atomic" code by A. Dal Corso  v.5.0.99 svn rev. 10869
     Shape of augmentation charge: BESSEL
     Using radial grid of 1095 points,  4 beta functions with: 
                l(1) =   0
                l(2) =   0
                l(3) =   1
                l(4) =   1
     Q(r) pseudized with 0 coefficients 


     atomic species   valence    mass     pseudopotential
        N              5.00    14.00674     N ( 1.00)
        Li             3.00     6.94100     Li( 1.00)
        Cr            14.00    51.99610     Cr( 1.00)
        O              6.00    15.99940     O ( 1.00)

     No symmetry found


                                    s                        frac. trans.

      isym =  1     identity                                     

 cryst.   s( 1) = (     1          0          0      )
                  (     0          1          0      )
                  (     0          0          1      )

 cart.    s( 1) = (  1.0000000  0.0000000  0.0000000 )
                  (  0.0000000  1.0000000  0.0000000 )
                  (  0.0000000  0.0000000  1.0000000 )


   Cartesian axes

     site n.     atom                  positions (alat units)
         1           Li  tau(   1) = (   0.2593273   0.0873080   0.8766270  )
         2           Li  tau(   2) = (   0.1280588   0.1809300   0.8766270  )
         3           Li  tau(   3) = (   0.1126144   0.0204373   0.8766270  )
         4           Li  tau(   4) = (  -0.0867563   0.1910497   1.2837267  )
         5           Li  tau(   5) = (   0.0429427   0.1192540   1.2806526  )
         6           Li  tau(   6) = (   0.0441035   0.2655736   1.2806351  )
         7           Li  tau(   7) = (   0.0669942   0.0904568   1.0336250  )
         8           Li  tau(   8) = (   0.2214985   0.0127904   1.0336250  )
         9           Li  tau(   9) = (   0.2115073   0.1854282   1.0336250  )
        10           Li  tau(  10) = (   0.0900091   0.2035148   1.1270442  )
        11           Li  tau(  11) = (  -0.0486000   0.2700192   1.1187981  )
        12           Li  tau(  12) = (  -0.0337427   0.0950638   1.1113292  )
        13           Li  tau(  13) = (   0.0000000   0.0000000   0.9626942  )
        14           Li  tau(  14) = (  -0.3368182   0.5652415   1.2002776  )
        15           Cr  tau(  15) = (   0.1702339   0.0945121   1.2043393  )
        16           Cr  tau(  16) = (  -0.0000000   0.1924500   0.9478909  )
        17           N   tau(  17) = (   0.2678341   0.0932445   1.2285459  )
        18           N   tau(  18) = (   0.1552623   0.0984511   1.1047779  )
        19           N   tau(  19) = (  -0.0969339   0.1982778   0.9168466  )
        20           N   tau(  20) = (   0.0434200   0.1055885   0.9168466  )
        21           N   tau(  21) = (   0.0535141   0.2734837   0.9168466  )
        22           N   tau(  22) = (   0.1275469   0.0031887   1.2433200  )
        23           N   tau(  23) = (   0.1260292   0.1830391   1.2487785  )
        24           N   tau(  24) = (  -0.0000000   0.1924500   1.0497374  )
        25           O   tau(  25) = (   0.6701229   0.5824444   1.0743823  )
        26           Li  tau(  26) = (   0.2594652   0.0907099   1.3532023  )
        27           Li  tau(  27) = (   0.1321322   0.1813279   1.3678829  )
        28           Li  tau(  28) = (   0.1107051   0.0099923   1.3724063  )
        29           Li  tau(  29) = (  -0.0955138   0.1953657   1.7974125  )
        30           Li  tau(  30) = (   0.0419275   0.1146272   1.7741293  )
        31           Li  tau(  31) = (   0.0746915   0.2637940   1.7690449  )
        32           Li  tau(  32) = (   0.0632399   0.0926788   1.5302926  )
        33           Li  tau(  33) = (   0.2356683   0.0081567   1.5286796  )
        34           Li  tau(  34) = (   0.2127620   0.1689810   1.5083127  )
        35           Li  tau(  35) = (   0.1165107   0.2053265   1.6097033  )
        36           Li  tau(  36) = (  -0.0497883   0.2783624   1.6219235  )
        37           Li  tau(  37) = (  -0.0462407   0.1219353   1.6270898  )
        38           Li  tau(  38) = (   0.6653248   0.5585779   1.4643937  )
        39           Li  tau(  39) = (  -0.3149487   0.5813428   1.6767770  )
        40           Cr  tau(  40) = (   0.1686823   0.1036570   1.6919543  )
        41           Cr  tau(  41) = (   0.0013101   0.1881090   1.4410111  )
        42           N   tau(  42) = (   0.2654356   0.0935741   1.7249506  )
        43           N   tau(  43) = (   0.1668209   0.1093382   1.5912357  )
        44           N   tau(  44) = (  -0.1017641   0.2041471   1.4064895  )
        45           N   tau(  45) = (   0.0431037   0.1023240   1.4049817  )
        46           N   tau(  46) = (   0.0542180   0.2628093   1.4045668  )
        47           N   tau(  47) = (   0.1218354   0.0084051   1.7169791  )
        48           N   tau(  48) = (   0.1335664   0.1922583   1.7315954  )
        49           N   tau(  49) = (   0.0099067   0.1944259   1.5404147  )
        50           O   tau(  50) = (   0.0052108   0.0045962   1.5667019  )
        51           Li  tau(  51) = (   0.0926606   0.3759836   0.8766270  )
        52           Li  tau(  52) = (  -0.0386079   0.4696050   0.8766270  )
        53           Li  tau(  53) = (  -0.0540524   0.3091127   0.8766270  )
        54           Li  tau(  54) = (  -0.2749348   0.4869002   1.2890624  )
        55           Li  tau(  55) = (  -0.1525898   0.4263990   1.2722721  )
        56           Li  tau(  56) = (  -0.0963016   0.5497521   1.2661006  )
        57           Li  tau(  57) = (  -0.0996725   0.3791318   1.0336250  )
        58           Li  tau(  58) = (   0.0548319   0.3014656   1.0336250  )
        59           Li  tau(  59) = (   0.0448406   0.4741032   1.0336250  )
        60           Li  tau(  60) = (  -0.0525964   0.4810368   1.1113935  )
        61           Li  tau(  61) = (  -0.2056245   0.5597322   1.1310241  )
        62           Li  tau(  62) = (  -0.2293683   0.3953927   1.1241338  )
        63           Li  tau(  63) = (  -0.1666667   0.2886750   0.9626942  )
        64           Li  tau(  64) = (  -0.1644213   0.2979830   1.2043919  )
        65           Cr  tau(  65) = (  -0.0068021   0.3765709   1.1998452  )
        66           Cr  tau(  66) = (  -0.1666667   0.4811250   0.9478909  )
        67           N   tau(  67) = (   0.0907087   0.3782523   1.2368564  )
        68           N   tau(  68) = (  -0.0037151   0.3687455   1.0951701  )
        69           N   tau(  69) = (  -0.2636006   0.4869528   0.9168466  )
        70           N   tau(  70) = (  -0.1232467   0.3942641   0.9168466  )
        71           N   tau(  71) = (  -0.1131527   0.5621587   0.9168466  )
        72           N   tau(  72) = (  -0.0542439   0.2990438   1.2531207  )
        73           N   tau(  73) = (  -0.0447176   0.4692146   1.2215563  )
        74           N   tau(  74) = (  -0.1666667   0.4811250   1.0497374  )
        75           O   tau(  75) = (  -0.1586391   0.2909198   1.0794025  )
        76           Li  tau(  76) = (   0.0921504   0.3683020   1.3727394  )
        77           Li  tau(  77) = (  -0.0304295   0.4708942   1.3858829  )
        78           Li  tau(  78) = (  -0.0463965   0.3038132   1.3737329  )
        79           Li  tau(  79) = (  -0.2712553   0.4971258   1.7777586  )
        80           Li  tau(  80) = (  -0.1190500   0.3987647   1.7820540  )
        81           Li  tau(  81) = (  -0.1020768   0.5647523   1.7632533  )
        82           Li  tau(  82) = (  -0.1001973   0.3827026   1.5513667  )
        83           Li  tau(  83) = (   0.0565850   0.2957646   1.5124679  )
        84           Li  tau(  84) = (   0.0477463   0.4530245   1.5195510  )
        85           Li  tau(  85) = (  -0.0540893   0.4815926   1.6267450  )
        86           Li  tau(  86) = (   0.1095269  -0.0049295   1.5945903  )
        87           Li  tau(  87) = (  -0.2004197   0.3969922   1.6305203  )
        88           Li  tau(  88) = (   0.8332982   0.2845414   1.4465163  )
        89           Li  tau(  89) = (  -0.1593819   0.2989210   1.6932810  )
        90           Cr  tau(  90) = (   0.0057642   0.3747761   1.7131103  )
        91           Cr  tau(  91) = (  -0.1528721   0.4803536   1.4530969  )
        92           N   tau(  92) = (   0.1051169   0.3788156   1.7315019  )
        93           N   tau(  93) = (   0.0029933   0.3769660   1.6125261  )
        94           N   tau(  94) = (  -0.2560335   0.4802180   1.4120123  )
        95           N   tau(  95) = (  -0.1050427   0.3959327   1.4251032  )
        96           N   tau(  96) = (  -0.1125344   0.5607438   1.4064486  )
        97           N   tau(  97) = (  -0.0501192   0.2990987   1.7405136  )
        98           N   tau(  98) = (  -0.0291924   0.4624552   1.7557377  )
        99           N   tau(  99) = (  -0.1610860   0.4900053   1.5550719  )
       100           O   tau( 100) = (  -0.1706968   0.3031154   1.5897630  )
       101           Li  tau( 101) = (   0.5926583   0.0873080   0.8766270  )
       102           Li  tau( 102) = (   0.4613921   0.1809300   0.8766270  )
       103           Li  tau( 103) = (   0.4459477   0.0204373   0.8766270  )
       104           Li  tau( 104) = (   0.2660954   0.2005272   1.2839020  )
       105           Li  tau( 105) = (   0.3704368   0.1145091   1.2651247  )
       106           Li  tau( 106) = (   0.4053435   0.2758137   1.2497486  )
       107           Li  tau( 107) = (   0.4003275   0.0904568   1.0336250  )
       108           Li  tau( 108) = (   0.5548318   0.0127904   1.0336250  )
       109           Li  tau( 109) = (   0.5448406   0.1854282   1.0336250  )
       110           Li  tau( 110) = (   0.4138427   0.1898850   1.1198325  )
       111           Li  tau( 111) = (   0.2873951   0.2876009   1.1209838  )
       112           Li  tau( 112) = (   0.2720518   0.1241140   1.1098916  )
       113           Li  tau( 113) = (   0.3333333   0.0000000   0.9626942  )
       114           Li  tau( 114) = (   0.3314608   0.0011054   1.1960640  )
       115           Cr  tau( 115) = (   0.5053591   0.1028786   1.1925692  )
       116           Cr  tau( 116) = (   0.3333333   0.1924500   0.9478909  )
       117           N   tau( 117) = (   0.5958550   0.0940036   1.2370083  )
       118           N   tau( 118) = (   0.4974694   0.0912873   1.0990448  )
       119           N   tau( 119) = (   0.2363994   0.1982778   0.9168466  )
       120           N   tau( 120) = (   0.3767532   0.1055885   0.9168466  )
       121           N   tau( 121) = (   0.3868473   0.2734837   0.9168466  )
       122           N   tau( 122) = (   0.4542219   0.0198941   1.2276109  )
       123           N   tau( 123) = (   0.4752604   0.1939309   1.2255011  )
       124           N   tau( 124) = (   0.3333333   0.1924500   1.0497374  )
       125           O   tau( 125) = (   0.0041866   0.5677077   1.0739265  )
       126           Li  tau( 126) = (   0.6660436   0.0103471   1.4263422  )
       127           Li  tau( 127) = (   0.4743423   0.2025084   1.3575328  )
       128           Li  tau( 128) = (   0.5762046   0.1026308   1.3684731  )
       129           Li  tau( 129) = (   0.2273117   0.2109527   1.7840586  )
       130           Li  tau( 130) = (   0.3857235   0.1031574   1.7604423  )
       131           Li  tau( 131) = (   0.4033232   0.2671018   1.7909606  )
       132           Li  tau( 132) = (   0.4486851   0.1076691   1.4912593  )
       133           Li  tau( 133) = (   0.1256107   0.5700676   1.6049637  )
       134           Li  tau( 134) = (   0.5361304   0.1825295   1.5284751  )
       135           Li  tau( 135) = (   0.4467875   0.2046591   1.6241735  )
       136           Li  tau( 136) = (   0.2789783   0.2460721   1.6118598  )
       137           Li  tau( 137) = (   0.3086563   0.0819015   1.6008903  )
       138           Li  tau( 138) = (   0.4490294   0.0186934   1.3546516  )
       139           Li  tau( 139) = (   0.0026819   0.5781676   1.7071141  )
       140           Cr  tau( 140) = (   0.5091619   0.0919406   1.7025381  )
       141           Cr  tau( 141) = (   0.3399577   0.1923384   1.4380130  )
       142           N   tau( 142) = (   0.6076778   0.0881472   1.7312506  )
       143           N   tau( 143) = (   0.5066612   0.0963121   1.5918786  )
       144           N   tau( 144) = (   0.2362136   0.1918720   1.4017440  )
       145           N   tau( 145) = (   0.3788910   0.1136214   1.3897167  )
       146           N   tau( 146) = (   0.3893720   0.2703640   1.4055486  )
       147           N   tau( 147) = (   0.4463919   0.0132593   1.7348564  )
       148           N   tau( 148) = (   0.4704810   0.1777624   1.7368552  )
       149           N   tau( 149) = (   0.3516203   0.1825622   1.5373991  )
       150           O   tau( 150) = (   0.0092552   0.5613978   1.5767889  )
       151           Li  tau( 151) = (   0.4259940   0.3759836   0.8766270  )
       152           Li  tau( 152) = (   0.2947255   0.4696050   0.8766270  )
       153           Li  tau( 153) = (   0.2792811   0.3091127   0.8766270  )
       154           Li  tau( 154) = (   0.0553281   0.4871095   1.2860293  )
       155           Li  tau( 155) = (   0.2224447   0.3895870   1.2857955  )
       156           Li  tau( 156) = (   0.2121244   0.5637611   1.2715708  )
       157           Li  tau( 157) = (   0.2336608   0.3791318   1.0336250  )
       158           Li  tau( 158) = (   0.3881652   0.3014656   1.0336250  )
       159           Li  tau( 159) = (   0.3781739   0.4741032   1.0336250  )
       160           Li  tau( 160) = (   0.2515984   0.4937484   1.1219773  )
       161           Li  tau( 161) = (   0.1068445   0.5698882   1.1151104  )
       162           Li  tau( 162) = (   0.1219242   0.3931771   1.1293235  )
       163           Li  tau( 163) = (   0.1666667   0.2886750   0.9626942  )
       164           Li  tau( 164) = (   0.1605507   0.2802436   1.2058997  )
       165           Cr  tau( 165) = (   0.3436647   0.3941777   1.2047601  )
       166           Cr  tau( 166) = (   0.1666667   0.4811250   0.9478909  )
       167           N   tau( 167) = (   0.4413887   0.3833595   1.2357343  )
       168           N   tau( 168) = (   0.3344951   0.3912854   1.1035097  )
       169           N   tau( 169) = (   0.0697328   0.4869528   0.9168466  )
       170           N   tau( 170) = (   0.2100866   0.3942641   0.9168466  )
       171           N   tau( 171) = (   0.2201806   0.5621587   0.9168466  )
       172           N   tau( 172) = (   0.2904774   0.3115205   1.2402577  )
       173           N   tau( 173) = (   0.2983372   0.4765555   1.2420285  )
       174           N   tau( 174) = (   0.1666667   0.4811250   1.0497374  )
       175           O   tau( 175) = (   0.1652839   0.2696557   1.0752414  )
       176           Li  tau( 176) = (   0.4162838   0.3897308   1.3569601  )
       177           Li  tau( 177) = (   0.2948167   0.4732477   1.3608991  )
       178           Li  tau( 178) = (   0.2846437   0.3093687   1.3707407  )
       179           Li  tau( 179) = (   0.0715567   0.4809614   1.7776651  )
       180           Li  tau( 180) = (   0.2127731   0.4001358   1.7798683  )
       181           Li  tau( 181) = (   0.2364654   0.5581659   1.7840820  )
       182           Li  tau( 182) = (   0.2356964   0.3727973   1.5269205  )
       183           Li  tau( 183) = (   0.3809482   0.3149557   1.5359147  )
       184           Li  tau( 184) = (   0.3778496   0.4984799   1.5285511  )
       185           Li  tau( 185) = (   0.2623932   0.4714716   1.6214443  )
       186           Li  tau( 186) = (   0.3481764   0.0012182   1.4724645  )
       187           Li  tau( 187) = (   0.1302072   0.3895298   1.6145365  )
       188           Li  tau( 188) = (   0.1797366   0.2882835   1.4357046  )
       189           Li  tau( 189) = (   0.1691265   0.2856442   1.7100830  )
       190           Cr  tau( 190) = (   0.3387000   0.3879542   1.7129525  )
       191           Cr  tau( 191) = (   0.1723051   0.4807060   1.4469780  )
       192           N   tau( 192) = (   0.4405582   0.3796309   1.7386201  )
       193           N   tau( 193) = (   0.3253215   0.3988705   1.6097852  )
       194           N   tau( 194) = (   0.0777843   0.4856654   1.4086577  )
       195           N   tau( 195) = (   0.2114395   0.3928370   1.4087863  )
       196           N   tau( 196) = (   0.2217732   0.5602909   1.4117259  )
       197           N   tau( 197) = (   0.2896802   0.3096130   1.7481344  )
       198           N   tau( 198) = (   0.3028892   0.4707399   1.7563806  )
       199           N   tau( 199) = (   0.1754353   0.4759740   1.5507531  )
       200           O   tau( 200) = (   0.1796343   0.2915387   1.5741298  )
       201           Li  tau( 201) = (   0.9259927   0.0873080   0.8766270  )
       202           Li  tau( 202) = (   0.7947266   0.1809300   0.8766270  )
       203           Li  tau( 203) = (   0.7792805   0.0204373   0.8766270  )
       204           Li  tau( 204) = (   0.5826974   0.1982761   1.2530740  )
       205           Li  tau( 205) = (   0.7065906   0.1069467   1.2701916  )
       206           Li  tau( 206) = (   0.7250640   0.2677131   1.2634883  )
       207           Li  tau( 207) = (   0.7336608   0.0904568   1.0336250  )
       208           Li  tau( 208) = (   0.8881634   0.0127904   1.0336250  )
       209           Li  tau( 209) = (   0.8781757   0.1854282   1.0336250  )
       210           Li  tau( 210) = (   0.7729571   0.2017890   1.1159227  )
       211           Li  tau( 211) = (   0.6134285   0.2780842   1.1220767  )
       212           Li  tau( 212) = (   0.6290967   0.0910430   1.1278799  )
       213           Li  tau( 213) = (   0.6666690   0.0000000   0.9626942  )
       214           Li  tau( 214) = (   0.6664060  -0.0001990   1.2142803  )
       215           Cr  tau( 215) = (   0.8437125   0.1008407   1.2034218  )
       216           Cr  tau( 216) = (   0.6666690   0.1924500   0.9478909  )
       217           N   tau( 217) = (   0.9428181   0.0818717   1.2275933  )
       218           N   tau( 218) = (   0.8369742   0.0939826   1.1019318  )
       219           N   tau( 219) = (   0.5697327   0.1982778   0.9168466  )
       220           N   tau( 220) = (   0.7100854   0.1055885   0.9168466  )
       221           N   tau( 221) = (   0.7201783   0.2734837   0.9168466  )
       222           N   tau( 222) = (   0.7823136   0.0267237   1.2418181  )
       223           N   tau( 223) = (   0.8002143   0.1829626   1.2416720  )
       224           N   tau( 224) = (   0.6666690   0.1924500   1.0497374  )
       225           O   tau( 225) = (   0.6654300  -0.0032655   1.0762408  )
       226           Li  tau( 226) = (   0.9438701   0.0732556   1.3610335  )
       227           Li  tau( 227) = (   0.7907409   0.1931700   1.3615419  )
       228           Li  tau( 228) = (   0.7957143   0.0376911   1.3886414  )
       229           Li  tau( 229) = (   0.5849849   0.1939800   1.7715404  )
       230           Li  tau( 230) = (   0.7218263   0.0888567   1.7839300  )
       231           Li  tau( 231) = (   0.7286699   0.2723183   1.7920008  )
       232           Li  tau( 232) = (   0.7276764   0.0882915   1.5239283  )
       233           Li  tau( 233) = (   0.8817698   0.0250243   1.5291589  )
       234           Li  tau( 234) = (   0.8887244   0.1738603   1.5211289  )
       235           Li  tau( 235) = (   0.7565291   0.1999060   1.6289424  )
       236           Li  tau( 236) = (   0.6297922   0.2804172   1.6165293  )
       237           Li  tau( 237) = (   0.6435377   0.0894347   1.6097326  )
       238           Li  tau( 238) = (   0.5569246   0.0105088   1.5361602  )
       239           Li  tau( 239) = (   0.4506628   0.5717677   1.6150975  )
       240           Cr  tau( 240) = (   0.8380554   0.1039826   1.7043440  )
       241           Cr  tau( 241) = (   0.6645358   0.1920164   1.4473812  )
       242           N   tau( 242) = (   0.9386337   0.1118670   1.7423428  )
       243           N   tau( 243) = (   0.8277872   0.0991769   1.5979273  )
       244           N   tau( 244) = (   0.5619161   0.1903660   1.4293753  )
       245           N   tau( 245) = (   0.7130192   0.1089250   1.4142798  )
       246           N   tau( 246) = (   0.7091561   0.2707568   1.3954616  )
       247           N   tau( 247) = (   0.7881928   0.0183539   1.7361539  )
       248           N   tau( 248) = (   0.7815831   0.1715921   1.7556208  )
       249           N   tau( 249) = (   0.6644657   0.1882732   1.5507765  )
       250           O   tau( 250) = (   0.3236261   0.5777346   1.5755266  )
       251           Li  tau( 251) = (   0.7593284   0.3759836   0.8766270  )
       252           Li  tau( 252) = (   0.6280565   0.4696050   0.8766270  )
       253           Li  tau( 253) = (   0.6126161   0.3091127   0.8766270  )
       254           Li  tau( 254) = (   0.4183638   0.4953509   1.2924111  )
       255           Li  tau( 255) = (   0.5367394   0.3840994   1.2914293  )
       256           Li  tau( 256) = (   0.5423346   0.5578229   1.2790689  )
       257           Li  tau( 257) = (   0.5669941   0.3791318   1.0336250  )
       258           Li  tau( 258) = (   0.7214991   0.3014656   1.0336250  )
       259           Li  tau( 259) = (   0.7115055   0.4741032   1.0336250  )
       260           Li  tau( 260) = (   0.6049836   0.5033019   1.1148591  )
       261           Li  tau( 261) = (   0.4585630   0.5594499   1.1244728  )
       262           Li  tau( 262) = (   0.4577857   0.3959169   1.1134974  )
       263           Li  tau( 263) = (   0.5000000   0.2886750   0.9626942  )
       264           Li  tau( 264) = (   0.5061697   0.2926543   1.1987289  )
       265           Cr  tau( 265) = (   0.6597787   0.3905741   1.2051283  )
       266           Cr  tau( 266) = (   0.5000000   0.4811250   0.9478909  )
       267           N   tau( 267) = (   0.7528765   0.3811031   1.2455291  )
       268           N   tau( 268) = (   0.6610819   0.3906133   1.1019376  )
       269           N   tau( 269) = (   0.4030661   0.4869528   0.9168466  )
       270           N   tau( 270) = (   0.5434199   0.3942641   0.9168466  )
       271           N   tau( 271) = (   0.5535140   0.5621587   0.9168466  )
       272           N   tau( 272) = (   0.6155675   0.3018414   1.2328589  )
       273           N   tau( 273) = (   0.6238370   0.4695974   1.2462596  )
       274           N   tau( 274) = (   0.5000000   0.4811250   1.0497374  )
       275           O   tau( 275) = (   0.4963024   0.2949756   1.0841830  )
       276           Li  tau( 276) = (   0.7597726   0.3612305   1.3675848  )
       277           Li  tau( 277) = (   0.6408786   0.4595296   1.3789517  )
       278           Li  tau( 278) = (   0.6147376   0.2986493   1.3652413  )
       279           Li  tau( 279) = (   0.3357668   0.5724532   1.6965888  )
       280           Li  tau( 280) = (   0.5482542   0.4095040   1.7718793  )
       281           Li  tau( 281) = (   0.5703125   0.5703545   1.7393740  )
       282           Li  tau( 282) = (   0.5679304   0.3919528   1.5299770  )
       283           Li  tau( 283) = (   0.7257770   0.3010729   1.5304855  )
       284           Li  tau( 284) = (   0.7247075   0.4571089   1.5250621  )
       285           Li  tau( 285) = (   0.6018161   0.4848121   1.6151326  )
       286           Li  tau( 286) = (   0.4154984   0.4817205   1.7769988  )
       287           Li  tau( 287) = (   0.4641763   0.4164703   1.6314554  )
       288           Li  tau( 288) = (   0.4995178   0.2943976   1.4573222  )
       289           Li  tau( 289) = (   0.5095786   0.2985949   1.6877699  )
       290           Cr  tau( 290) = (   0.6673410   0.3900972   1.7039875  )
       291           Cr  tau( 291) = (   0.4993273   0.4860803   1.4412916  )
       292           N   tau( 292) = (   0.7596323   0.3915823   1.7366915  )
       293           N   tau( 293) = (   0.6725365   0.3819808   1.6004111  )
       294           N   tau( 294) = (   0.4048719   0.4958278   1.4027609  )
       295           N   tau( 295) = (   0.5431955   0.3940321   1.4107850  )
       296           N   tau( 296) = (   0.5624696   0.5636168   1.4135844  )
       297           N   tau( 297) = (   0.6198980   0.3031931   1.7306545  )
       298           N   tau( 298) = (   0.6211954   0.4779551   1.7295967  )
       299           N   tau( 299) = (   0.4867775   0.4921244   1.5465804  )
       300           O   tau( 300) = (   0.4898141   0.3103353   1.5713363  )

   Crystallographic axes

     site n.     atom                  positions (cryst. coord.)
         1           Li  tau(   1) = (  0.3097346  0.1512218  0.3321863  )
         2           Li  tau(   2) = (  0.2325188  0.3133799  0.3321863  )
         3           Li  tau(   3) = (  0.1244139  0.0353984  0.3321863  )
         4           Li  tau(   4) = (  0.0235464  0.3309079  0.4864514  )
         5           Li  tau(   5) = (  0.1117941  0.2065540  0.4852865  )
         6           Li  tau(   6) = (  0.1974324  0.4599869  0.4852798  )
         7           Li  tau(   7) = (  0.1192194  0.1566758  0.3916786  )
         8           Li  tau(   8) = (  0.2288830  0.0221536  0.3916786  )
         9           Li  tau(   9) = (  0.3185643  0.3211711  0.3916786  )
        10           Li  tau(  10) = (  0.2075085  0.3524980  0.4270786  )
        11           Li  tau(  11) = (  0.1072957  0.4676870  0.4239538  )
        12           Li  tau(  12) = (  0.0211424  0.1646553  0.4211236  )
        13           Li  tau(  13) = (  0.0000000  0.0000000  0.3648003  )
        14           Li  tau(  14) = ( -0.0104759  0.9790269  0.4548294  )
        15           Cr  tau(  15) = (  0.2248005  0.1636997  0.4563686  )
        16           Cr  tau(  16) = (  0.1111111  0.3333332  0.3591908  )
        17           N   tau(  17) = (  0.3216688  0.1615042  0.4655413  )
        18           N   tau(  18) = (  0.2121031  0.1705222  0.4186411  )
        19           N   tau(  19) = (  0.0175419  0.3434273  0.3474270  )
        20           N   tau(  20) = (  0.1043816  0.1828847  0.3474270  )
        21           N   tau(  21) = (  0.2114100  0.4736876  0.3474270  )
        22           N   tau(  22) = (  0.1293879  0.0055230  0.4711398  )
        23           N   tau(  23) = (  0.2317068  0.3170331  0.4732082  )
        24           N   tau(  24) = (  0.1111111  0.3333332  0.3977842  )
        25           O   tau(  25) = (  1.0063973  1.0088233  0.4071231  )
        26           Li  tau(  26) = (  0.3118366  0.1571141  0.5127782  )
        27           Li  tau(  27) = (  0.2368220  0.3140692  0.5183412  )
        28           Li  tau(  28) = (  0.1164742  0.0173071  0.5200553  )
        29           Li  tau(  29) = (  0.0172807  0.3383833  0.6811059  )
        30           Li  tau(  30) = (  0.1081075  0.1985401  0.6722830  )
        31           Li  tau(  31) = (  0.2269931  0.4569046  0.6703563  )
        32           Li  tau(  32) = (  0.1167480  0.1605243  0.5798843  )
        33           Li  tau(  33) = (  0.2403776  0.0141278  0.5792731  )
        34           Li  tau(  34) = (  0.3103232  0.2926836  0.5715553  )
        35           Li  tau(  35) = (  0.2350560  0.3556359  0.6099759  )
        36           Li  tau(  36) = (  0.1109243  0.4821378  0.6146066  )
        37           Li  tau(  37) = (  0.0241587  0.2111981  0.6165643  )
        38           Li  tau(  38) = (  0.9878199  0.9674854  0.5549127  )
        39           Li  tau(  39) = (  0.0206897  1.0069152  0.6353926  )
        40           Cr  tau(  40) = (  0.2285287  0.1795393  0.6411439  )
        41           Cr  tau(  41) = (  0.1099148  0.3258143  0.5460522  )
        42           N   tau(  42) = (  0.3194607  0.1620751  0.6536474  )
        43           N   tau(  43) = (  0.2299474  0.1893793  0.6029779  )
        44           N   tau(  44) = (  0.0161003  0.3535932  0.5329707  )
        45           N   tau(  45) = (  0.1021805  0.1772303  0.5323994  )
        46           N   tau(  46) = (  0.2059510  0.4551990  0.5322421  )
        47           N   tau(  47) = (  0.1266881  0.0145581  0.6506267  )
        48           N   tau(  48) = (  0.2445668  0.3330012  0.6561653  )
        49           N   tau(  49) = (  0.1221586  0.3367556  0.5837199  )
        50           O   tau(  50) = (  0.0078644  0.0079609  0.5936811  )
        51           Li  tau(  51) = (  0.3097348  0.6512226  0.3321863  )
        52           Li  tau(  52) = (  0.2325186  0.8133797  0.3321863  )
        53           Li  tau(  53) = (  0.1244139  0.5353989  0.3321863  )
        54           Li  tau(  54) = (  0.0061772  0.8433360  0.4884733  )
        55           Li  tau(  55) = (  0.0935918  0.7385446  0.4821108  )
        56           Li  tau(  56) = (  0.2210979  0.9521985  0.4797722  )
        57           Li  tau(  57) = (  0.1192194  0.6566756  0.3916786  )
        58           Li  tau(  58) = (  0.2288831  0.5221537  0.3916786  )
        59           Li  tau(  59) = (  0.3185642  0.8211709  0.3916786  )
        60           Li  tau(  60) = (  0.2251303  0.8331801  0.4211480  )
        61           Li  tau(  61) = (  0.1175370  0.9694845  0.4285867  )
        62           Li  tau(  62) = ( -0.0010882  0.6848402  0.4259757  )
        63           Li  tau(  63) = ( -0.0000001  0.4999998  0.3648003  )
        64           Li  tau(  64) = (  0.0076193  0.5161218  0.4563885  )
        65           Cr  tau(  65) = (  0.2106112  0.6522399  0.4546656  )
        66           Cr  tau(  66) = (  0.1111110  0.8333330  0.3591908  )
        67           N   tau(  67) = (  0.3090927  0.6551521  0.4686905  )
        68           N   tau(  68) = (  0.2091802  0.6386860  0.4150003  )
        69           N   tau(  69) = (  0.0175418  0.8434271  0.3474270  )
        70           N   tau(  70) = (  0.1043818  0.6828855  0.3474270  )
        71           N   tau(  71) = (  0.2114098  0.9736874  0.3474270  )
        72           N   tau(  72) = (  0.1184091  0.5179590  0.4748536  )
        73           N   tau(  73) = (  0.2261835  0.8127035  0.4628927  )
        74           N   tau(  74) = (  0.1111110  0.8333330  0.3977842  )
        75           O   tau(  75) = (  0.0093235  0.5038878  0.4090254  )
        76           Li  tau(  76) = (  0.3047897  0.6379177  0.5201816  )
        77           Li  tau(  77) = (  0.2414414  0.8156127  0.5251621  )
        78           Li  tau(  78) = (  0.1290101  0.5262199  0.5205580  )
        79           Li  tau(  79) = (  0.0157604  0.8610471  0.6736583  )
        80           Li  tau(  80) = (  0.1111769  0.6906808  0.6752860  )
        81           Li  tau(  81) = (  0.2239831  0.9781797  0.6681617  )
        82           Li  tau(  82) = (  0.1207562  0.6628604  0.5878700  )
        83           Li  tau(  83) = (  0.2273447  0.5122793  0.5731298  )
        84           Li  tau(  84) = (  0.3093001  0.7846614  0.5758139  )
        85           Li  tau(  85) = (  0.2239582  0.8341428  0.6164336  )
        86           Li  tau(  86) = (  0.1066809 -0.0085381  0.6042490  )
        87           Li  tau(  87) = (  0.0287838  0.6876107  0.6178642  )
        88           Li  tau(  88) = (  0.9975783  0.4928402  0.5481384  )
        89           Li  tau(  89) = (  0.0132003  0.5177464  0.6416466  )
        90           Cr  tau(  90) = (  0.2221413  0.6491313  0.6491606  )
        91           Cr  tau(  91) = (  0.1244602  0.8319968  0.5506320  )
        92           N   tau(  92) = (  0.3238262  0.6561279  0.6561299  )
        93           N   tau(  93) = (  0.2206347  0.6529242  0.6110456  )
        94           N   tau(  94) = (  0.0212205  0.8317620  0.5350635  )
        95           N   tau(  95) = (  0.1235491  0.6857755  0.5400241  )
        96           N   tau(  96) = (  0.2112112  0.9712367  0.5329552  )
        97           N   tau(  97) = (  0.1225656  0.5180541  0.6595448  )
        98           N   tau(  98) = (  0.2378062  0.8009959  0.6653137  )
        99           N   tau(  99) = (  0.1218186  0.8487140  0.5892741  )
       100           O   tau( 100) = (  0.0043070  0.5250113  0.6024198  )
       101           Li  tau( 101) = (  0.6430655  0.1512218  0.3321863  )
       102           Li  tau( 102) = (  0.5658521  0.3133799  0.3321863  )
       103           Li  tau( 103) = (  0.4577472  0.0353984  0.3321863  )
       104           Li  tau( 104) = (  0.3818699  0.3473234  0.4865178  )
       105           Li  tau( 105) = (  0.4365487  0.1983356  0.4794024  )
       106           Li  tau( 106) = (  0.5645847  0.4777234  0.4735758  )
       107           Li  tau( 107) = (  0.4525527  0.1566758  0.3916786  )
       108           Li  tau( 108) = (  0.5622164  0.0221536  0.3916786  )
       109           Li  tau( 109) = (  0.6518976  0.3211711  0.3916786  )
       110           Li  tau( 110) = (  0.5234729  0.3288905  0.4243458  )
       111           Li  tau( 111) = (  0.4534416  0.4981393  0.4247821  )
       112           Li  tau( 112) = (  0.3437091  0.2149718  0.4205788  )
       113           Li  tau( 113) = (  0.3333333  0.0000000  0.3648003  )
       114           Li  tau( 114) = (  0.3320991  0.0019147  0.4532327  )
       115           Cr  tau( 115) = (  0.5647561  0.1781910  0.4519084  )
       116           Cr  tau( 116) = (  0.4444444  0.3333332  0.3591908  )
       117           N   tau( 117) = (  0.6501281  0.1628191  0.4687480  )
       118           N   tau( 118) = (  0.5501742  0.1581142  0.4164686  )
       119           N   tau( 119) = (  0.3508752  0.3434273  0.3474270  )
       120           N   tau( 120) = (  0.4377148  0.1828847  0.3474270  )
       121           N   tau( 121) = (  0.5447432  0.4736876  0.3474270  )
       122           N   tau( 122) = (  0.4657078  0.0344576  0.4651870  )
       123           N   tau( 123) = (  0.5872265  0.3358982  0.4643875  )
       124           N   tau( 124) = (  0.4444444  0.3333332  0.3977842  )
       125           O   tau( 125) = (  0.3319528  0.9832986  0.4069503  )
       126           Li  tau( 126) = (  0.6720175  0.0179216  0.5404936  )
       127           Li  tau( 127) = (  0.5912606  0.3507549  0.5144192  )
       128           Li  tau( 128) = (  0.6354585  0.1777618  0.5185649  )
       129           Li  tau( 129) = (  0.3491053  0.3653808  0.6760456  )
       130           Li  tau( 130) = (  0.4452814  0.1786738  0.6670965  )
       131           Li  tau( 131) = (  0.5575345  0.4626339  0.6786610  )
       132           Li  tau( 132) = (  0.5108479  0.1864883  0.5650931  )
       133           Li  tau( 133) = (  0.4547394  0.9873860  0.6081799  )
       134           Li  tau( 134) = (  0.6415139  0.3161504  0.5791956  )
       135           Li  tau( 135) = (  0.5649475  0.3544799  0.6154592  )
       136           Li  tau( 136) = (  0.4210481  0.4262094  0.6107931  )
       137           Li  tau( 137) = (  0.3559421  0.1418576  0.6066364  )
       138           Li  tau( 138) = (  0.4598220  0.0323779  0.5133274  )
       139           Li  tau( 139) = (  0.3364871  1.0014157  0.6468885  )
       140           Cr  tau( 140) = (  0.5622438  0.1592459  0.6451545  )
       141           Cr  tau( 141) = (  0.4510043  0.3331399  0.5449161  )
       142           N   tau( 142) = (  0.6585696  0.1526754  0.6560347  )
       143           N   tau( 143) = (  0.5622670  0.1668174  0.6032215  )
       144           N   tau( 144) = (  0.3469909  0.3323321  0.5311725  )
       145           N   tau( 145) = (  0.4444904  0.1967980  0.5266149  )
       146           N   tau( 146) = (  0.5454667  0.4682842  0.5326142  )
       147           N   tau( 147) = (  0.4540471  0.0229657  0.6574011  )
       148           N   tau( 148) = (  0.5731122  0.3078935  0.6581584  )
       149           N   tau( 149) = (  0.4570227  0.3162071  0.5825772  )
       150           O   tau( 150) = (  0.3333783  0.9723694  0.5975034  )
       151           Li  tau( 151) = (  0.6430682  0.6512226  0.3321863  )
       152           Li  tau( 152) = (  0.5658520  0.8133797  0.3321863  )
       153           Li  tau( 153) = (  0.4577474  0.5353989  0.3321863  )
       154           Li  tau( 154) = (  0.3365609  0.8436983  0.4873239  )
       155           Li  tau( 155) = (  0.4473729  0.6747846  0.4872353  )
       156           Li  tau( 156) = (  0.5376121  0.9764629  0.4818450  )
       157           Li  tau( 157) = (  0.4525527  0.6566756  0.3916786  )
       158           Li  tau( 158) = (  0.5622164  0.5221537  0.3916786  )
       159           Li  tau( 159) = (  0.6518976  0.8211709  0.3916786  )
       160           Li  tau( 160) = (  0.5366642  0.8551974  0.4251586  )
       161           Li  tau( 161) = (  0.4358696  0.9870753  0.4225564  )
       162           Li  tau( 162) = (  0.3489251  0.6810028  0.4279423  )
       163           Li  tau( 163) = (  0.3333333  0.4999998  0.3648003  )
       164           Li  tau( 164) = (  0.3223494  0.4853962  0.4569599  )
       165           Cr  tau( 165) = (  0.5712432  0.6827357  0.4565280  )
       166           Cr  tau( 166) = (  0.4444443  0.8333330  0.3591908  )
       167           N   tau( 167) = (  0.6627214  0.6639981  0.4682653  )
       168           N   tau( 168) = (  0.5604038  0.6777261  0.4181605  )
       169           N   tau( 169) = (  0.3508751  0.8434271  0.3474270  )
       170           N   tau( 170) = (  0.4377151  0.6828855  0.3474270  )
       171           N   tau( 171) = (  0.5447431  0.9736874  0.3474270  )
       172           N   tau( 172) = (  0.4703338  0.5395693  0.4699793  )
       173           N   tau( 173) = (  0.5734766  0.8254183  0.4706504  )
       174           N   tau( 174) = (  0.4444443  0.8333330  0.3977842  )
       175           O   tau( 175) = (  0.3209697  0.4670574  0.4074486  )
       176           Li  tau( 176) = (  0.6412950  0.6750336  0.5142022  )
       177           Li  tau( 177) = (  0.5680463  0.8196890  0.5156948  )
       178           Li  tau( 178) = (  0.4632578  0.5358423  0.5194242  )
       179           Li  tau( 179) = (  0.3492399  0.8330496  0.6736228  )
       180           Li  tau( 180) = (  0.4437917  0.6930555  0.6744577  )
       181           Li  tau( 181) = (  0.5587227  0.9667717  0.6760544  )
       182           Li  tau( 182) = (  0.4509310  0.6457039  0.5786065  )
       183           Li  tau( 183) = (  0.5627879  0.5455193  0.5820147  )
       184           Li  tau( 184) = (  0.6656471  0.8633925  0.5792243  )
       185           Li  tau( 185) = (  0.5345974  0.8166128  0.6144250  )
       186           Li  tau( 186) = (  0.3488797  0.0021101  0.5579711  )
       187           Li  tau( 187) = (  0.3551023  0.6746854  0.6118074  )
       188           Li  tau( 188) = (  0.3461771  0.4993216  0.5440414  )
       189           Li  tau( 189) = (  0.3340432  0.4947503  0.6480135  )
       190           Cr  tau( 190) = (  0.5626855  0.6719564  0.6491008  )
       191           Cr  tau( 191) = (  0.4498409  0.8326072  0.5483133  )
       192           N   tau( 192) = (  0.6597382  0.6575400  0.6588272  )
       193           N   tau( 193) = (  0.5556095  0.6908640  0.6100069  )
       194           N   tau( 194) = (  0.3581833  0.8411971  0.5337923  )
       195           N   tau( 195) = (  0.4382440  0.6804136  0.5338411  )
       196           N   tau( 196) = (  0.5452573  0.9704522  0.5349550  )
       197           N   tau( 197) = (  0.4684353  0.5362654  0.6624326  )
       198           N   tau( 198) = (  0.5746710  0.8153454  0.6655573  )
       199           N   tau( 199) = (  0.4502390  0.8244111  0.5876375  )
       200           O   tau( 200) = (  0.3479542  0.5049598  0.5964958  )
       201           Li  tau( 201) = (  0.9764000  0.1512218  0.3321863  )
       202           Li  tau( 202) = (  0.8991866  0.3133799  0.3321863  )
       203           Li  tau( 203) = (  0.7910799  0.0353984  0.3321863  )
       204           Li  tau( 204) = (  0.6971722  0.3434242  0.4748359  )
       205           Li  tau( 205) = (  0.7683363  0.1852372  0.4813224  )
       206           Li  tau( 206) = (  0.8796282  0.4636927  0.4787823  )
       207           Li  tau( 207) = (  0.7858861  0.1566758  0.3916786  )
       208           Li  tau( 208) = (  0.8955479  0.0221536  0.3916786  )
       209           Li  tau( 209) = (  0.9852327  0.3211711  0.3916786  )
       210           Li  tau( 210) = (  0.8894600  0.3495088  0.4228643  )
       211           Li  tau( 211) = (  0.7739805  0.4816559  0.4251962  )
       212           Li  tau( 212) = (  0.6816604  0.1576910  0.4273953  )
       213           Li  tau( 213) = (  0.6666690  0.0000000  0.3648003  )
       214           Li  tau( 214) = (  0.6662911 -0.0003446  0.4601356  )
       215           Cr  tau( 215) = (  0.9019330  0.1746613  0.4560209  )
       216           Cr  tau( 216) = (  0.7777800  0.3333332  0.3591908  )
       217           N   tau( 217) = (  0.9900868  0.1418059  0.4651804  )
       218           N   tau( 218) = (  0.8912351  0.1627826  0.4175626  )
       219           N   tau( 219) = (  0.6842085  0.3434273  0.3474270  )
       220           N   tau( 220) = (  0.7710469  0.1828847  0.3474270  )
       221           N   tau( 221) = (  0.8780741  0.4736876  0.3474270  )
       222           N   tau( 222) = (  0.7977425  0.0462869  0.4705706  )
       223           N   tau( 223) = (  0.9058478  0.3169005  0.4705153  )
       224           N   tau( 224) = (  0.7777800  0.3333332  0.3977842  )
       225           O   tau( 225) = (  0.6635446 -0.0056561  0.4078273  )
       226           Li  tau( 226) = (  0.9861642  0.1268825  0.5157458  )
       227           Li  tau( 227) = (  0.9022677  0.3345803  0.5159384  )
       228           Li  tau( 228) = (  0.8174753  0.0652829  0.5262074  )
       229           Li  tau( 229) = (  0.6969793  0.3359832  0.6713019  )
       230           Li  tau( 230) = (  0.7731277  0.1539043  0.6759968  )
       231           Li  tau( 231) = (  0.8858929  0.4716692  0.6790552  )
       232           Li  tau( 232) = (  0.7786515  0.1529254  0.5774726  )
       233           Li  tau( 233) = (  0.8962176  0.0433434  0.5794547  )
       234           Li  tau( 234) = (  0.9891027  0.3011348  0.5764118  )
       235           Li  tau( 235) = (  0.8719449  0.3462474  0.6172663  )
       236           Li  tau( 236) = (  0.7916911  0.4856968  0.6125626  )
       237           Li  tau( 237) = (  0.6951728  0.1549054  0.6099870  )
       238           Li  tau( 238) = (  0.5629919  0.0182017  0.5821077  )
       239           Li  tau( 239) = (  0.7807730  0.9903306  0.6120200  )
       240           Cr  tau( 240) = (  0.8980897  0.1801031  0.6458388  )
       241           Cr  tau( 241) = (  0.7753965  0.3325821  0.5484661  )
       242           N   tau( 242) = (  1.0032201  0.1937592  0.6602379  )
       243           N   tau( 243) = (  0.8850470  0.1717794  0.6055136  )
       244           N   tau( 244) = (  0.6718240  0.3297235  0.5416430  )
       245           N   tau( 245) = (  0.7759070  0.1886636  0.5359228  )
       246           N   tau( 246) = (  0.8654776  0.4689645  0.5287918  )
       247           N   tau( 247) = (  0.7987895  0.0317899  0.6578927  )
       248           N   tau( 248) = (  0.8806518  0.2972063  0.6652694  )
       249           N   tau( 249) = (  0.7731653  0.3260987  0.5876464  )
       250           O   tau( 250) = (  0.6571813  1.0006656  0.5970251  )
       251           Li  tau( 251) = (  0.9764026  0.6512226  0.3321863  )
       252           Li  tau( 252) = (  0.8991830  0.8133797  0.3321863  )
       253           Li  tau( 253) = (  0.7910824  0.5353989  0.3321863  )
       254           Li  tau( 254) = (  0.7043548  0.8579730  0.4897422  )
       255           Li  tau( 255) = (  0.7584993  0.6652796  0.4893702  )
       256           Li  tau( 256) = (  0.8643938  0.9661775  0.4846863  )
       257           Li  tau( 257) = (  0.7858860  0.6566756  0.3916786  )
       258           Li  tau( 258) = (  0.8955503  0.5221537  0.3916786  )
       259           Li  tau( 259) = (  0.9852291  0.8211709  0.3916786  )
       260           Li  tau( 260) = (  0.8955651  0.8717445  0.4224612  )
       261           Li  tau( 261) = (  0.7815615  0.9689956  0.4261042  )
       262           Li  tau( 262) = (  0.6863684  0.6857482  0.4219452  )
       263           Li  tau( 263) = (  0.6666666  0.4999998  0.3648003  )
       264           Li  tau( 264) = (  0.6751337  0.5068921  0.4542426  )
       265           Cr  tau( 265) = (  0.8852768  0.6764942  0.4566675  )
       266           Cr  tau( 266) = (  0.7777776  0.8333330  0.3591908  )
       267           N   tau( 267) = (  0.9729064  0.6600898  0.4719769  )
       268           N   tau( 268) = (  0.8866026  0.6765621  0.4175648  )
       269           N   tau( 269) = (  0.6842084  0.8434271  0.3474270  )
       270           N   tau( 270) = (  0.7710484  0.6828855  0.3474270  )
       271           N   tau( 271) = (  0.8780764  0.9736874  0.3474270  )
       272           N   tau( 272) = (  0.7898356  0.5228046  0.4671757  )
       273           N   tau( 273) = (  0.8949591  0.8133665  0.4722537  )
       274           N   tau( 274) = (  0.7777776  0.8333330  0.3977842  )
       275           O   tau( 275) = (  0.6666066  0.5109128  0.4108369  )
       276           Li  tau( 276) = (  0.9683291  0.6256696  0.5182283  )
       277           Li  tau( 277) = (  0.9061881  0.7959286  0.5225356  )
       278           Li  tau( 278) = (  0.7871628  0.5172757  0.5173403  )
       279           Li  tau( 279) = (  0.6662728  0.9915180  0.6429000  )
       280           Li  tau( 280) = (  0.7846814  0.7092818  0.6714304  )
       281           Li  tau( 281) = (  0.8996068  0.9878830  0.6591129  )
       282           Li  tau( 282) = (  0.7942244  0.6788821  0.5797647  )
       283           Li  tau( 283) = (  0.8996015  0.5214735  0.5799574  )
       284           Li  tau( 284) = (  0.9886195  0.7917359  0.5779022  )
       285           Li  tau( 285) = (  0.8817225  0.8397192  0.6120333  )
       286           Li  tau( 286) = (  0.6936199  0.8343645  0.6733704  )
       287           Li  tau( 287) = (  0.7046255  0.7213477  0.6182186  )
       288           Li  tau( 288) = (  0.6694884  0.5099117  0.5522331  )
       289           Li  tau( 289) = (  0.6819724  0.5171816  0.6395582  )
       290           Cr  tau( 290) = (  0.8925638  0.6756682  0.6457037  )
       291           Cr  tau( 291) = (  0.7799659  0.8419158  0.5461585  )
       292           N   tau( 292) = (  0.9857124  0.6782404  0.6580964  )
       293           N   tau( 293) = (  0.8930733  0.6616102  0.6064548  )
       294           N   tau( 294) = (  0.6911382  0.8587990  0.5315578  )
       295           N   tau( 295) = (  0.7706900  0.6824837  0.5345984  )
       296           N   tau( 296) = (  0.8878739  0.9762129  0.5356592  )
       297           N   tau( 297) = (  0.7949466  0.5251459  0.6558088  )
       298           N   tau( 298) = (  0.8971429  0.8278426  0.6554079  )
       299           N   tau( 299) = (  0.7709056  0.8523844  0.5860563  )
       300           O   tau( 300) = (  0.6689863  0.5375165  0.5954372  )

     number of k points=     1  Gaussian smearing, width (Ry)=  0.0147
                       cart. coord. in units 2pi/alat
        k(    1) = (   0.0000000   0.0000000   0.0000000), wk =   2.0000000

                       cryst. coord.
        k(    1) = (   0.0000000   0.0000000   0.0000000), wk =   2.0000000

     Dense  grid:  5457965 G-vectors     FFT dimensions: ( 240, 160, 640)

     Smooth grid:  2970742 G-vectors     FFT dimensions: ( 200, 135, 540)

     Dynamical RAM for                 wfc:    1182.84 MB

     Dynamical RAM for     wfc (w. buffer):    1182.84 MB

     Dynamical RAM for           str. fact:      83.28 MB

     Dynamical RAM for           local pot:       0.00 MB

     Dynamical RAM for          nlocal pot:    3977.76 MB

     Dynamical RAM for                qrad:       7.46 MB

     Dynamical RAM for          rho,v,vnew:     203.09 MB

     Dynamical RAM for               rhoin:      67.70 MB

     Dynamical RAM for            rho*nmix:     333.13 MB

     Dynamical RAM for           G-vectors:      83.74 MB

     Dynamical RAM for          h,s,v(r/c):      63.83 MB

     Dynamical RAM for          <psi|beta>:      17.89 MB

     Dynamical RAM for                 psi:    2365.69 MB

     Dynamical RAM for                hpsi:    2365.69 MB

     Dynamical RAM for                spsi:    2365.69 MB

     Dynamical RAM for      wfcinit/wfcrot:    4336.08 MB

     Dynamical RAM for           addusdens:    7370.47 MB

     Dynamical RAM for          addusforce:   14335.60 MB

     Dynamical RAM for         addusstress:    4184.93 MB

     Estimated static dynamical RAM per process >       5.81 GB

     Estimated max dynamical RAM per process >      20.13 GB

     Estimated total dynamical RAM >      80.52 GB

     Check: negative core charge=   -0.000002

     Initial potential from superposition of free atoms

     starting charge    1292.2742, renormalised to    1392.0000

     negative rho (up, down):  2.476E-02 0.000E+00
     Starting wfcs are 1512 randomized atomic wfcs
     Checking if some PAW data can be deallocated... 

     total cpu time spent up to now is       34.7 secs

     per-process dynamical memory:  1708.6 Mb

     Self-consistent Calculation
[tb_dev] Currently allocated     1.26E+02 Mbytes, locked:    0 /  11
[tb_pin] Currently allocated     0.00E+00 Mbytes, locked:    0 /   0

     iteration #  1     ecut=    90.00 Ry     beta= 0.20
     Davidson diagonalization with overlap

---- Real-time Memory Report at c_bands before calling an iterative solver
         10171 MiB given to the printing process from OS
          1746 MiB allocation reported by mallinfo(arena+hblkhd)
        465839 MiB available memory on the node where the printing process lives
     GPU memory used/free/total (MiB): 16367 / 48601 / 64969
------------------
     ethr =  1.00E-02,  avg # of iterations =  3.0

     negative rho (up, down):  4.073E-02 0.000E+00

     total cpu time spent up to now is       38.5 secs

     total energy              =   -9071.72908971 Ry
     estimated scf accuracy    <     237.56882496 Ry
[tb_dev] Currently allocated     2.41E+01 Mbytes, locked:    0 /   6
[tb_pin] Currently allocated     0.00E+00 Mbytes, locked:    0 /   0

     iteration #  2     ecut=    90.00 Ry     beta= 0.20
     Davidson diagonalization with overlap

---- Real-time Memory Report at c_bands before calling an iterative solver
         10502 MiB given to the printing process from OS
          2013 MiB allocation reported by mallinfo(arena+hblkhd)
        464861 MiB available memory on the node where the printing process lives
     GPU memory used/free/total (MiB): 31249 / 33719 / 64969
------------------
     ethr =  1.00E-02,  avg # of iterations =  5.0

     negative rho (up, down):  5.384E-02 0.000E+00

     total cpu time spent up to now is       42.4 secs

     total energy              =   -9081.43633816 Ry
     estimated scf accuracy    <      28.26565610 Ry
[tb_dev] Currently allocated     2.41E+01 Mbytes, locked:    0 /   6
[tb_pin] Currently allocated     0.00E+00 Mbytes, locked:    0 /   0

     iteration #  3     ecut=    90.00 Ry     beta= 0.20
     Davidson diagonalization with overlap

---- Real-time Memory Report at c_bands before calling an iterative solver
         10526 MiB given to the printing process from OS
          2037 MiB allocation reported by mallinfo(arena+hblkhd)
        464733 MiB available memory on the node where the printing process lives
     GPU memory used/free/total (MiB): 31249 / 33719 / 64969
------------------
     ethr =  2.03E-03,  avg # of iterations =  8.0

     negative rho (up, down):  4.199E-02 0.000E+00

     total cpu time spent up to now is       47.8 secs

     total energy              =   -9088.39195869 Ry
     estimated scf accuracy    <     240.73208557 Ry
[tb_dev] Currently allocated     2.41E+01 Mbytes, locked:    0 /   6
[tb_pin] Currently allocated     0.00E+00 Mbytes, locked:    0 /   0

     iteration #  4     ecut=    90.00 Ry     beta= 0.20
     Davidson diagonalization with overlap

---- Real-time Memory Report at c_bands before calling an iterative solver
         10529 MiB given to the printing process from OS
         -2035 MiB allocation reported by mallinfo(arena+hblkhd)
        464516 MiB available memory on the node where the printing process lives
     GPU memory used/free/total (MiB): 32131 / 32837 / 64969
------------------
     ethr =  2.03E-03,  avg # of iterations =  2.0

     negative rho (up, down):  3.958E-02 0.000E+00

     total cpu time spent up to now is       51.2 secs

     total energy              =   -9095.97212857 Ry
     estimated scf accuracy    <      27.29076695 Ry
[tb_dev] Currently allocated     2.41E+01 Mbytes, locked:    0 /   6
[tb_pin] Currently allocated     0.00E+00 Mbytes, locked:    0 /   0

     iteration #  5     ecut=    90.00 Ry     beta= 0.20
     Davidson diagonalization with overlap

---- Real-time Memory Report at c_bands before calling an iterative solver
         10552 MiB given to the printing process from OS
         -2011 MiB allocation reported by mallinfo(arena+hblkhd)
        464387 MiB available memory on the node where the printing process lives
     GPU memory used/free/total (MiB): 32131 / 32837 / 64969
------------------
     ethr =  1.96E-03,  avg # of iterations =  2.0

     negative rho (up, down):  3.391E-02 0.000E+00

     total cpu time spent up to now is       54.7 secs

     total energy              =   -9095.67256228 Ry
     estimated scf accuracy    <       4.93027137 Ry
[tb_dev] Currently allocated     2.41E+01 Mbytes, locked:    0 /   6
[tb_pin] Currently allocated     0.00E+00 Mbytes, locked:    0 /   0

     iteration #  6     ecut=    90.00 Ry     beta= 0.20
     Davidson diagonalization with overlap

---- Real-time Memory Report at c_bands before calling an iterative solver
         10576 MiB given to the printing process from OS
         -1988 MiB allocation reported by mallinfo(arena+hblkhd)
        464266 MiB available memory on the node where the printing process lives
     GPU memory used/free/total (MiB): 32133 / 32835 / 64969
------------------
     ethr =  3.54E-04,  avg # of iterations = 11.0

     negative rho (up, down):  3.823E-02 0.000E+00

     total cpu time spent up to now is       59.4 secs

     total energy              =   -9094.13647138 Ry
     estimated scf accuracy    <      30.16009720 Ry
[tb_dev] Currently allocated     2.41E+01 Mbytes, locked:    0 /   6
[tb_pin] Currently allocated     0.00E+00 Mbytes, locked:    0 /   0

     iteration #  7     ecut=    90.00 Ry     beta= 0.20
     Davidson diagonalization with overlap

---- Real-time Memory Report at c_bands before calling an iterative solver
         10600 MiB given to the printing process from OS
         -1965 MiB allocation reported by mallinfo(arena+hblkhd)
        464090 MiB available memory on the node where the printing process lives
     GPU memory used/free/total (MiB): 32323 / 32645 / 64969
------------------
     ethr =  3.54E-04,  avg # of iterations =  5.0

     negative rho (up, down):  3.624E-02 0.000E+00

     total cpu time spent up to now is       63.4 secs

     total energy              =   -9096.40839585 Ry
     estimated scf accuracy    <       2.41166108 Ry
[tb_dev] Currently allocated     2.41E+01 Mbytes, locked:    0 /   6
[tb_pin] Currently allocated     0.00E+00 Mbytes, locked:    0 /   0

     iteration #  8     ecut=    90.00 Ry     beta= 0.20
     Davidson diagonalization with overlap

---- Real-time Memory Report at c_bands before calling an iterative solver
         10623 MiB given to the printing process from OS
         -1941 MiB allocation reported by mallinfo(arena+hblkhd)
        463962 MiB available memory on the node where the printing process lives
     GPU memory used/free/total (MiB): 32323 / 32645 / 64969
------------------
     ethr =  1.73E-04,  avg # of iterations = 21.0

     negative rho (up, down):  3.976E-02 0.000E+00

     total cpu time spent up to now is       69.4 secs

     total energy              =   -9094.71315839 Ry
     estimated scf accuracy    <       7.88498502 Ry
[tb_dev] Currently allocated     2.41E+01 Mbytes, locked:    0 /   6
[tb_pin] Currently allocated     0.00E+00 Mbytes, locked:    0 /   0

     iteration #  9     ecut=    90.00 Ry     beta= 0.20
     Davidson diagonalization with overlap

---- Real-time Memory Report at c_bands before calling an iterative solver
         10647 MiB given to the printing process from OS
         -1918 MiB allocation reported by mallinfo(arena+hblkhd)
        463963 MiB available memory on the node where the printing process lives
     GPU memory used/free/total (MiB): 32323 / 32645 / 64969
------------------
     ethr =  1.73E-04,  avg # of iterations = 10.0

     negative rho (up, down):  3.980E-02 0.000E+00

     total cpu time spent up to now is       73.9 secs

     total energy              =   -9096.20098356 Ry
     estimated scf accuracy    <       2.55953015 Ry
[tb_dev] Currently allocated     2.41E+01 Mbytes, locked:    0 /   6
[tb_pin] Currently allocated     0.00E+00 Mbytes, locked:    0 /   0

     iteration # 10     ecut=    90.00 Ry     beta= 0.20
     Davidson diagonalization with overlap

---- Real-time Memory Report at c_bands before calling an iterative solver
         10670 MiB given to the printing process from OS
         -1894 MiB allocation reported by mallinfo(arena+hblkhd)
        463869 MiB available memory on the node where the printing process lives
     GPU memory used/free/total (MiB): 32347 / 32621 / 64969
------------------
     ethr =  1.73E-04,  avg # of iterations =  1.0

     negative rho (up, down):  3.846E-02 0.000E+00

     total cpu time spent up to now is       77.3 secs

     total energy              =   -9095.77270079 Ry
     estimated scf accuracy    <       2.53337730 Ry
[tb_dev] Currently allocated     2.41E+01 Mbytes, locked:    0 /   6
[tb_pin] Currently allocated     0.00E+00 Mbytes, locked:    0 /   0

     iteration # 11     ecut=    90.00 Ry     beta= 0.20
     Davidson diagonalization with overlap

---- Real-time Memory Report at c_bands before calling an iterative solver
         10670 MiB given to the printing process from OS
         -1894 MiB allocation reported by mallinfo(arena+hblkhd)
        463773 MiB available memory on the node where the printing process lives
     GPU memory used/free/total (MiB): 32347 / 32621 / 64969
------------------
     ethr =  1.73E-04,  avg # of iterations =  1.0

     negative rho (up, down):  3.864E-02 0.000E+00

     total cpu time spent up to now is       80.7 secs

     total energy              =   -9095.95946990 Ry
     estimated scf accuracy    <       0.07487278 Ry
[tb_dev] Currently allocated     2.41E+01 Mbytes, locked:    0 /   6
[tb_pin] Currently allocated     0.00E+00 Mbytes, locked:    0 /   0

     iteration # 12     ecut=    90.00 Ry     beta= 0.20
     Davidson diagonalization with overlap

---- Real-time Memory Report at c_bands before calling an iterative solver
         10670 MiB given to the printing process from OS
         -1894 MiB allocation reported by mallinfo(arena+hblkhd)
        463964 MiB available memory on the node where the printing process lives
     GPU memory used/free/total (MiB): 32347 / 32621 / 64969
------------------
     c_bands:  3 eigenvalues not converged
     ethr =  5.38E-06,  avg # of iterations = 20.0

     negative rho (up, down):  3.897E-02 0.000E+00

     total cpu time spent up to now is       86.4 secs

     total energy              =   -9095.97931861 Ry
     estimated scf accuracy    <       0.08101180 Ry
[tb_dev] Currently allocated     2.41E+01 Mbytes, locked:    0 /   6
[tb_pin] Currently allocated     0.00E+00 Mbytes, locked:    0 /   0

     iteration # 13     ecut=    90.00 Ry     beta= 0.20
     Davidson diagonalization with overlap

---- Real-time Memory Report at c_bands before calling an iterative solver
         10670 MiB given to the printing process from OS
         -1894 MiB allocation reported by mallinfo(arena+hblkhd)
        463773 MiB available memory on the node where the printing process lives
     GPU memory used/free/total (MiB): 32347 / 32621 / 64969
------------------
     ethr =  5.38E-06,  avg # of iterations =  2.0

     negative rho (up, down):  3.962E-02 0.000E+00

     total cpu time spent up to now is       89.9 secs

     total energy              =   -9095.97235056 Ry
     estimated scf accuracy    <       0.02900283 Ry
[tb_dev] Currently allocated     2.41E+01 Mbytes, locked:    0 /   6
[tb_pin] Currently allocated     0.00E+00 Mbytes, locked:    0 /   0

     iteration # 14     ecut=    90.00 Ry     beta= 0.20
     Davidson diagonalization with overlap

---- Real-time Memory Report at c_bands before calling an iterative solver
         10670 MiB given to the printing process from OS
         -1894 MiB allocation reported by mallinfo(arena+hblkhd)
        463773 MiB available memory on the node where the printing process lives
     GPU memory used/free/total (MiB): 32347 / 32621 / 64969
------------------
     ethr =  2.08E-06,  avg # of iterations = 32.0

     negative rho (up, down):  3.960E-02 0.000E+00

     total cpu time spent up to now is       97.3 secs

     total energy              =   -9095.97530653 Ry
     estimated scf accuracy    <       0.04870182 Ry
[tb_dev] Currently allocated     2.41E+01 Mbytes, locked:    0 /   6
[tb_pin] Currently allocated     0.00E+00 Mbytes, locked:    0 /   0

     iteration # 15     ecut=    90.00 Ry     beta= 0.20
     Davidson diagonalization with overlap

---- Real-time Memory Report at c_bands before calling an iterative solver
         10670 MiB given to the printing process from OS
         -1894 MiB allocation reported by mallinfo(arena+hblkhd)
        463773 MiB available memory on the node where the printing process lives
     GPU memory used/free/total (MiB): 32347 / 32621 / 64969
------------------
     ethr =  2.08E-06,  avg # of iterations =  2.0

     negative rho (up, down):  3.971E-02 0.000E+00

     total cpu time spent up to now is      100.8 secs

     total energy              =   -9095.97746695 Ry
     estimated scf accuracy    <       0.00466660 Ry
[tb_dev] Currently allocated     2.41E+01 Mbytes, locked:    0 /   6
[tb_pin] Currently allocated     0.00E+00 Mbytes, locked:    0 /   0

     iteration # 16     ecut=    90.00 Ry     beta= 0.20
     Davidson diagonalization with overlap

---- Real-time Memory Report at c_bands before calling an iterative solver
         10670 MiB given to the printing process from OS
         -1894 MiB allocation reported by mallinfo(arena+hblkhd)
        463773 MiB available memory on the node where the printing process lives
     GPU memory used/free/total (MiB): 32347 / 32621 / 64969
------------------
     ethr =  3.35E-07,  avg # of iterations =  5.0

     negative rho (up, down):  3.979E-02 0.000E+00

     total cpu time spent up to now is      104.6 secs

     total energy              =   -9095.97804090 Ry
     estimated scf accuracy    <       0.00091054 Ry
[tb_dev] Currently allocated     2.41E+01 Mbytes, locked:    0 /   6
[tb_pin] Currently allocated     0.00E+00 Mbytes, locked:    0 /   0

     iteration # 17     ecut=    90.00 Ry     beta= 0.20
     Davidson diagonalization with overlap

---- Real-time Memory Report at c_bands before calling an iterative solver
         10670 MiB given to the printing process from OS
         -1894 MiB allocation reported by mallinfo(arena+hblkhd)
        463773 MiB available memory on the node where the printing process lives
     GPU memory used/free/total (MiB): 32347 / 32621 / 64969
------------------
     ethr =  6.54E-08,  avg # of iterations =  4.0

     negative rho (up, down):  3.989E-02 0.000E+00

     total cpu time spent up to now is      108.5 secs

     total energy              =   -9095.97814865 Ry
     estimated scf accuracy    <       0.00051392 Ry
[tb_dev] Currently allocated     2.41E+01 Mbytes, locked:    0 /   6
[tb_pin] Currently allocated     0.00E+00 Mbytes, locked:    0 /   0

     iteration # 18     ecut=    90.00 Ry     beta= 0.20
     Davidson diagonalization with overlap

---- Real-time Memory Report at c_bands before calling an iterative solver
         10670 MiB given to the printing process from OS
         -1894 MiB allocation reported by mallinfo(arena+hblkhd)
        463773 MiB available memory on the node where the printing process lives
     GPU memory used/free/total (MiB): 32347 / 32621 / 64969
------------------
     ethr =  3.69E-08,  avg # of iterations =  3.0

     negative rho (up, down):  3.997E-02 0.000E+00

     total cpu time spent up to now is      112.1 secs

     total energy              =   -9095.97817219 Ry
     estimated scf accuracy    <       0.00027259 Ry
[tb_dev] Currently allocated     2.41E+01 Mbytes, locked:    0 /   6
[tb_pin] Currently allocated     0.00E+00 Mbytes, locked:    0 /   0

     iteration # 19     ecut=    90.00 Ry     beta= 0.20
     Davidson diagonalization with overlap

---- Real-time Memory Report at c_bands before calling an iterative solver
         10670 MiB given to the printing process from OS
         -1894 MiB allocation reported by mallinfo(arena+hblkhd)
        463773 MiB available memory on the node where the printing process lives
     GPU memory used/free/total (MiB): 32347 / 32621 / 64969
------------------
     ethr =  1.96E-08,  avg # of iterations =  2.0

     negative rho (up, down):  4.003E-02 0.000E+00

     total cpu time spent up to now is      115.7 secs

     total energy              =   -9095.97817973 Ry
     estimated scf accuracy    <       0.00011485 Ry
[tb_dev] Currently allocated     2.41E+01 Mbytes, locked:    0 /   6
[tb_pin] Currently allocated     0.00E+00 Mbytes, locked:    0 /   0

     iteration # 20     ecut=    90.00 Ry     beta= 0.20
     Davidson diagonalization with overlap

---- Real-time Memory Report at c_bands before calling an iterative solver
         10670 MiB given to the printing process from OS
         -1894 MiB allocation reported by mallinfo(arena+hblkhd)
        463773 MiB available memory on the node where the printing process lives
     GPU memory used/free/total (MiB): 32347 / 32621 / 64969
------------------
     ethr =  8.25E-09,  avg # of iterations =  2.0

     negative rho (up, down):  4.008E-02 0.000E+00

     total cpu time spent up to now is      119.3 secs

     total energy              =   -9095.97819589 Ry
     estimated scf accuracy    <       0.00003311 Ry
[tb_dev] Currently allocated     2.41E+01 Mbytes, locked:    0 /   6
[tb_pin] Currently allocated     0.00E+00 Mbytes, locked:    0 /   0

     iteration # 21     ecut=    90.00 Ry     beta= 0.20
     Davidson diagonalization with overlap

---- Real-time Memory Report at c_bands before calling an iterative solver
         10670 MiB given to the printing process from OS
         -1894 MiB allocation reported by mallinfo(arena+hblkhd)
        463773 MiB available memory on the node where the printing process lives
     GPU memory used/free/total (MiB): 32537 / 32431 / 64969
------------------
     ethr =  2.38E-09,  avg # of iterations =  4.0

     negative rho (up, down):  4.010E-02 0.000E+00

     total cpu time spent up to now is      123.3 secs

     total energy              =   -9095.97820090 Ry
     estimated scf accuracy    <       0.00001573 Ry
[tb_dev] Currently allocated     2.41E+01 Mbytes, locked:    0 /   6
[tb_pin] Currently allocated     0.00E+00 Mbytes, locked:    0 /   0

     iteration # 22     ecut=    90.00 Ry     beta= 0.20
     Davidson diagonalization with overlap

---- Real-time Memory Report at c_bands before calling an iterative solver
         10670 MiB given to the printing process from OS
         -1894 MiB allocation reported by mallinfo(arena+hblkhd)
        463963 MiB available memory on the node where the printing process lives
     GPU memory used/free/total (MiB): 32537 / 32431 / 64969
------------------
     ethr =  1.13E-09,  avg # of iterations =  2.0

     negative rho (up, down):  4.012E-02 0.000E+00

     total cpu time spent up to now is      127.0 secs

     total energy              =   -9095.97820258 Ry
     estimated scf accuracy    <       0.00000480 Ry
[tb_dev] Currently allocated     2.41E+01 Mbytes, locked:    0 /   6
[tb_pin] Currently allocated     0.00E+00 Mbytes, locked:    0 /   0

     iteration # 23     ecut=    90.00 Ry     beta= 0.20
     Davidson diagonalization with overlap

---- Real-time Memory Report at c_bands before calling an iterative solver
         10670 MiB given to the printing process from OS
         -1894 MiB allocation reported by mallinfo(arena+hblkhd)
        463820 MiB available memory on the node where the printing process lives
     GPU memory used/free/total (MiB): 32537 / 32431 / 64969
------------------
     ethr =  3.45E-10,  avg # of iterations =  4.0

     negative rho (up, down):  4.013E-02 0.000E+00

     total cpu time spent up to now is      130.8 secs

     total energy              =   -9095.97820339 Ry
     estimated scf accuracy    <       0.00000240 Ry
[tb_dev] Currently allocated     2.41E+01 Mbytes, locked:    0 /   6
[tb_pin] Currently allocated     0.00E+00 Mbytes, locked:    0 /   0

     iteration # 24     ecut=    90.00 Ry     beta= 0.20
     Davidson diagonalization with overlap

---- Real-time Memory Report at c_bands before calling an iterative solver
         10670 MiB given to the printing process from OS
         -1894 MiB allocation reported by mallinfo(arena+hblkhd)
        463820 MiB available memory on the node where the printing process lives
     GPU memory used/free/total (MiB): 32537 / 32431 / 64969
------------------
     ethr =  1.72E-10,  avg # of iterations =  2.0

     negative rho (up, down):  4.015E-02 0.000E+00

     total cpu time spent up to now is      134.4 secs

     total energy              =   -9095.97820372 Ry
     estimated scf accuracy    <       0.00000104 Ry
[tb_dev] Currently allocated     2.41E+01 Mbytes, locked:    0 /   6
[tb_pin] Currently allocated     0.00E+00 Mbytes, locked:    0 /   0

     iteration # 25     ecut=    90.00 Ry     beta= 0.20
     Davidson diagonalization with overlap

---- Real-time Memory Report at c_bands before calling an iterative solver
         10670 MiB given to the printing process from OS
         -1894 MiB allocation reported by mallinfo(arena+hblkhd)
        463767 MiB available memory on the node where the printing process lives
     GPU memory used/free/total (MiB): 32537 / 32431 / 64969
------------------
     ethr =  7.48E-11,  avg # of iterations =  4.0

     negative rho (up, down):  4.015E-02 0.000E+00

     total cpu time spent up to now is      138.4 secs

     total energy              =   -9095.97820392 Ry
     estimated scf accuracy    <       0.00000029 Ry
[tb_dev] Currently allocated     2.41E+01 Mbytes, locked:    0 /   6
[tb_pin] Currently allocated     0.00E+00 Mbytes, locked:    0 /   0

     iteration # 26     ecut=    90.00 Ry     beta= 0.20
     Davidson diagonalization with overlap

---- Real-time Memory Report at c_bands before calling an iterative solver
         10670 MiB given to the printing process from OS
         -1894 MiB allocation reported by mallinfo(arena+hblkhd)
        463767 MiB available memory on the node where the printing process lives
     GPU memory used/free/total (MiB): 32537 / 32431 / 64969
------------------
     ethr =  2.11E-11,  avg # of iterations =  4.0

     negative rho (up, down):  4.016E-02 0.000E+00

     total cpu time spent up to now is      142.3 secs

     total energy              =   -9095.97820398 Ry
     estimated scf accuracy    <       0.00000015 Ry
[tb_dev] Currently allocated     2.41E+01 Mbytes, locked:    0 /   6
[tb_pin] Currently allocated     0.00E+00 Mbytes, locked:    0 /   0

     iteration # 27     ecut=    90.00 Ry     beta= 0.20
     Davidson diagonalization with overlap

---- Real-time Memory Report at c_bands before calling an iterative solver
         10670 MiB given to the printing process from OS
         -1894 MiB allocation reported by mallinfo(arena+hblkhd)
        463767 MiB available memory on the node where the printing process lives
     GPU memory used/free/total (MiB): 32537 / 32431 / 64969
------------------
     ethr =  1.11E-11,  avg # of iterations =  3.0

     negative rho (up, down):  4.018E-02 0.000E+00

     total cpu time spent up to now is      145.8 secs

     End of self-consistent calculation

          k = 0.0000 0.0000 0.0000 (371318 PWs)   bands (ev):

   -72.1249 -72.1229 -72.0978 -72.0803 -72.0618 -72.0613 -72.0220 -71.9806
   -71.9360 -71.9325 -71.9181 -71.9174 -71.9040 -71.8981 -71.8733 -71.8527
   -71.7780 -71.7603 -71.7451 -71.7201 -71.6025 -71.5928 -71.5302 -71.2553
   -45.4081 -45.0146 -44.9257 -44.9196 -44.9174 -44.9053 -44.8785 -44.8704
   -44.8597 -44.8548 -44.8498 -44.8228 -44.8155 -44.8152 -44.7965 -44.7873
   -44.7491 -44.7450 -44.7410 -44.7402 -44.7386 -44.7371 -44.7219 -44.7217
   -44.7200 -44.6897 -44.6857 -44.6795 -44.6763 -44.6560 -44.6554 -44.6546
   -44.6363 -44.6345 -44.6301 -44.6165 -44.6102 -44.5311 -44.5176 -44.5143
   -44.5004 -44.4995 -44.4982 -44.4860 -44.4791 -44.4718 -44.4692 -44.4588
   -44.4471 -44.4359 -44.4333 -44.4291 -44.4220 -44.4148 -44.4050 -44.4037
   -44.3996 -44.3969 -44.3938 -44.3879 -44.3844 -44.3819 -44.3695 -44.3632
   -44.3603 -44.3577 -44.3454 -44.3358 -44.3303 -44.3209 -44.3199 -44.3194
   -44.3163 -44.3096 -44.3085 -44.3023 -44.2964 -44.2950 -44.2889 -44.2840
   -44.2710 -44.2658 -44.2620 -44.2616 -44.2510 -44.2310 -44.2295 -44.2219
   -44.2078 -44.2042 -44.1954 -44.1937 -44.1902 -44.1862 -44.1837 -44.1788
   -44.1690 -44.1632 -44.1552 -44.1427 -44.1307 -44.1259 -44.1132 -44.1111
   -44.0775 -44.0588 -44.0549 -44.0513 -44.0459 -44.0342 -44.0318 -44.0158
   -44.0153 -44.0033 -44.0006 -43.9963 -43.9827 -43.9795 -43.9741 -43.9671
   -43.9658 -43.9449 -43.9358 -43.9179 -43.9048 -43.9021 -43.8966 -43.8951
   -43.8782 -43.8661 -43.8653 -43.8550 -43.8435 -43.8414 -43.8328 -43.8325
   -43.8208 -43.7696 -43.7599 -43.7545 -43.7090 -43.6857 -43.6845 -43.6844
   -43.6730 -43.6683 -43.6331 -43.6219 -43.6092 -43.6033 -43.6005 -43.5910
   -43.5818 -43.5811 -43.5794 -43.5694 -43.5328 -43.5290 -43.5211 -43.5150
[...]
     atom  143 type  1   force =    -0.00000739    0.00000158   -0.00005279
     atom  144 type  1   force =    -0.00000491   -0.00000083   -0.00000110
     atom  145 type  1   force =     0.00000212    0.00000159   -0.00000560
     atom  146 type  1   force =    -0.00000561   -0.00000715   -0.00000289
     atom  147 type  1   force =    -0.00003857   -0.00002469   -0.00001124
     atom  148 type  1   force =    -0.00001494    0.00002773   -0.00000912
     atom  149 type  1   force =    -0.00000461   -0.00000162   -0.00003480
     atom  150 type  4   force =    -0.00000599    0.00000474   -0.00001067
     atom  151 type  2   force =     0.00000774    0.00001913    0.00000125
     atom  152 type  2   force =    -0.00000161   -0.00000576   -0.00000183
     atom  153 type  2   force =    -0.00000587    0.00000924    0.00000849
     atom  154 type  2   force =     0.00000252    0.00000027    0.00001070
     atom  155 type  2   force =    -0.00001033    0.00000567    0.00001463
     atom  156 type  2   force =    -0.00000160    0.00000298    0.00000683
     atom  157 type  2   force =     0.00000397   -0.00000928    0.00000163
     atom  158 type  2   force =     0.00000505    0.00001352    0.00001354
     atom  159 type  2   force =    -0.00000265   -0.00000143    0.00000073
     atom  160 type  2   force =     0.00000559    0.00000430    0.00000428
     atom  161 type  2   force =     0.00000071    0.00001567    0.00000379
     atom  162 type  2   force =    -0.00000974   -0.00000270    0.00001020
     atom  163 type  2   force =    -0.00000596    0.00001430    0.00001107
     atom  164 type  2   force =    -0.00000567    0.00000008   -0.00000225
     atom  165 type  3   force =    -0.00000924    0.00000592   -0.00002124
     atom  166 type  3   force =    -0.00001093   -0.00000174   -0.00001141
     atom  167 type  1   force =    -0.00001370    0.00000315   -0.00000571
     atom  168 type  1   force =    -0.00000304   -0.00000703    0.00000212
     atom  169 type  1   force =     0.00002371    0.00000671    0.00000927
     atom  170 type  1   force =    -0.00000759    0.00000608    0.00000322
     atom  171 type  1   force =    -0.00001701   -0.00001624    0.00000375
     atom  172 type  1   force =    -0.00000019    0.00001828   -0.00001511
     atom  173 type  1   force =     0.00001103   -0.00000742   -0.00001131
     atom  174 type  1   force =    -0.00000319   -0.00000145   -0.00002217
     atom  175 type  4   force =     0.00001550   -0.00000793   -0.00000598
     atom  176 type  2   force =     0.00000565    0.00000569    0.00001086
     atom  177 type  2   force =    -0.00001071    0.00000303    0.00000971
     atom  178 type  2   force =    -0.00000418   -0.00000306    0.00001120
     atom  179 type  2   force =    -0.00000304   -0.00000110    0.00000189
     atom  180 type  2   force =     0.00000454    0.00000110    0.00000401
     atom  181 type  2   force =     0.00000560   -0.00001448    0.00000450
     atom  182 type  2   force =     0.00002165   -0.00000059    0.00000568
     atom  183 type  2   force =    -0.00001462    0.00002270    0.00000640
     atom  184 type  2   force =    -0.00001792   -0.00000681    0.00000656
     atom  185 type  2   force =     0.00003031   -0.00002398    0.00000434
     atom  186 type  2   force =     0.00000002    0.00000277    0.00000538
     atom  187 type  2   force =    -0.00001688   -0.00000647    0.00000305
     atom  188 type  2   force =     0.00000273   -0.00000599   -0.00000372
     atom  189 type  2   force =     0.00001013    0.00000946    0.00000127
     atom  190 type  3   force =    -0.00000318   -0.00000093   -0.00010456
     atom  191 type  3   force =    -0.00000337    0.00001032   -0.00003634
     atom  192 type  1   force =    -0.00002490    0.00000596   -0.00002858
     atom  193 type  1   force =    -0.00000656    0.00000068    0.00001913
     atom  194 type  1   force =     0.00000239   -0.00000322   -0.00000295
     atom  195 type  1   force =    -0.00000403    0.00000143   -0.00000932
     atom  196 type  1   force =    -0.00000383   -0.00000447   -0.00001161
     atom  197 type  1   force =     0.00001022    0.00002550   -0.00003539
     atom  198 type  1   force =     0.00000960   -0.00002999   -0.00003981
     atom  199 type  1   force =    -0.00000576    0.00000264   -0.00002634
     atom  200 type  4   force =    -0.00000148   -0.00000734   -0.00001834
     atom  201 type  2   force =    -0.00000051    0.00000421   -0.00000387
     atom  202 type  2   force =    -0.00000028   -0.00000084    0.00000093
     atom  203 type  2   force =     0.00000199   -0.00000353   -0.00000073
     atom  204 type  2   force =    -0.00000105   -0.00000735   -0.00000455
     atom  205 type  2   force =    -0.00000020    0.00000342    0.00000371
     atom  206 type  2   force =     0.00000100   -0.00000575    0.00000661
     atom  207 type  2   force =     0.00000618   -0.00000192    0.00000381
     atom  208 type  2   force =     0.00000128    0.00000191    0.00000620
     atom  209 type  2   force =    -0.00000609   -0.00000140    0.00000386
     atom  210 type  2   force =     0.00000731    0.00000083    0.00000418
     atom  211 type  2   force =     0.00000196    0.00000563    0.00000551
     atom  212 type  2   force =    -0.00000761   -0.00000380    0.00001010
     atom  213 type  2   force =     0.00000149    0.00000055    0.00001091
     atom  214 type  2   force =     0.00000134    0.00000430   -0.00000566
     atom  215 type  3   force =    -0.00001383   -0.00000062   -0.00001496
     atom  216 type  3   force =     0.00000162   -0.00000407    0.00000611
     atom  217 type  1   force =    -0.00001633    0.00000378   -0.00001047
     atom  218 type  1   force =    -0.00000069   -0.00000074    0.00000677
     atom  219 type  1   force =     0.00000385    0.00000043    0.00000326
     atom  220 type  1   force =    -0.00000781    0.00002123    0.00001152
     atom  221 type  1   force =    -0.00000945   -0.00002407    0.00000991
     atom  222 type  1   force =     0.00000384    0.00001092   -0.00001142
     atom  223 type  1   force =     0.00001029   -0.00001508   -0.00001505
     atom  224 type  1   force =     0.00000464   -0.00000179   -0.00002671
     atom  225 type  4   force =     0.00000046   -0.00000071    0.00000849
     atom  226 type  2   force =     0.00000490    0.00000591    0.00000141
     atom  227 type  2   force =    -0.00000397    0.00000348    0.00000225
     atom  228 type  2   force =    -0.00000236   -0.00000278    0.00000103
     atom  229 type  2   force =     0.00000757    0.00000115    0.00000120
     atom  230 type  2   force =    -0.00000458    0.00000414    0.00000227
     atom  231 type  2   force =     0.00000134    0.00000156   -0.00000362
     atom  232 type  2   force =     0.00000974   -0.00001602    0.00000468
     atom  233 type  2   force =    -0.00000387    0.00001397    0.00000033
     atom  234 type  2   force =    -0.00001144   -0.00001176    0.00000074
     atom  235 type  2   force =     0.00000530    0.00000565   -0.00000453
     atom  236 type  2   force =     0.00000008    0.00001642   -0.00000297
     atom  237 type  2   force =    -0.00000499   -0.00001100   -0.00001052
     atom  238 type  2   force =    -0.00000606    0.00002043    0.00000104
     atom  239 type  2   force =    -0.00000741    0.00001800   -0.00000761
     atom  240 type  3   force =    -0.00002396   -0.00000541   -0.00002962
     atom  241 type  3   force =     0.00001241   -0.00001026   -0.00003727
     atom  242 type  1   force =     0.00004063    0.00000608    0.00001805
     atom  243 type  1   force =    -0.00000667   -0.00000597   -0.00005892
     atom  244 type  1   force =    -0.00001459   -0.00000505   -0.00001179
     atom  245 type  1   force =     0.00001392   -0.00001670   -0.00001740
     atom  246 type  1   force =     0.00001038    0.00001288   -0.00002322
     atom  247 type  1   force =    -0.00001670   -0.00002636    0.00000116
     atom  248 type  1   force =    -0.00002290    0.00003420    0.00001832
     atom  249 type  1   force =     0.00000223    0.00000221   -0.00000587
     atom  250 type  4   force =     0.00000341    0.00000467   -0.00001891
     atom  251 type  2   force =     0.00000039    0.00000475   -0.00000143
     atom  252 type  2   force =    -0.00000139   -0.00000146    0.00000021
     atom  253 type  2   force =    -0.00000428   -0.00000468   -0.00000061
     atom  254 type  2   force =     0.00000761    0.00000133    0.00001433
     atom  255 type  2   force =     0.00000086    0.00000509    0.00001132
     atom  256 type  2   force =    -0.00000740   -0.00000054    0.00000644
     atom  257 type  2   force =    -0.00000163   -0.00000292   -0.00000012
     atom  258 type  2   force =     0.00000492    0.00000040    0.00000554
     atom  259 type  2   force =    -0.00000449    0.00000121    0.00000473
     atom  260 type  2   force =     0.00000654    0.00000494    0.00000378
     atom  261 type  2   force =    -0.00000109    0.00000942    0.00000731
     atom  262 type  2   force =    -0.00000674   -0.00000649   -0.00000178
     atom  263 type  2   force =     0.00001439   -0.00000263    0.00001094
     atom  264 type  2   force =    -0.00000255   -0.00000521   -0.00000458
     atom  265 type  3   force =    -0.00000299    0.00001079   -0.00003366
     atom  266 type  3   force =     0.00000310    0.00000168   -0.00000561
     atom  267 type  1   force =    -0.00000980    0.00000166   -0.00001762
     atom  268 type  1   force =     0.00000272    0.00000146    0.00000887
     atom  269 type  1   force =     0.00002370   -0.00000047    0.00000444
     atom  270 type  1   force =    -0.00001404    0.00001760    0.00000483
     atom  271 type  1   force =    -0.00001304   -0.00002469    0.00001327
     atom  272 type  1   force =     0.00000136    0.00001240   -0.00001229
     atom  273 type  1   force =     0.00001011   -0.00001453   -0.00002154
     atom  274 type  1   force =     0.00000397    0.00000388   -0.00002682
     atom  275 type  4   force =    -0.00001522   -0.00000164   -0.00000651
     atom  276 type  2   force =     0.00000407    0.00000024    0.00001204
     atom  277 type  2   force =     0.00000299    0.00000205    0.00000566
     atom  278 type  2   force =     0.00000307   -0.00000537    0.00000101
     atom  279 type  2   force =    -0.00000121   -0.00001453    0.00000148
     atom  280 type  2   force =    -0.00001423   -0.00000095   -0.00000115
     atom  281 type  2   force =     0.00000662   -0.00000237   -0.00000010
     atom  282 type  2   force =     0.00001172   -0.00000689    0.00000525
     atom  283 type  2   force =     0.00000630    0.00001397    0.00000837
     atom  284 type  2   force =    -0.00000705   -0.00000603    0.00000504
     atom  285 type  2   force =     0.00001600   -0.00000847   -0.00000332
     atom  286 type  2   force =    -0.00000011   -0.00001362   -0.00000205
     atom  287 type  2   force =    -0.00002013   -0.00001308    0.00001921
     atom  288 type  2   force =    -0.00000229   -0.00000011    0.00000176
     atom  289 type  2   force =    -0.00000510    0.00000909    0.00000157
     atom  290 type  3   force =     0.00002523   -0.00000222   -0.00003683
     atom  291 type  3   force =     0.00000172    0.00000249   -0.00003858
     atom  292 type  1   force =    -0.00001707   -0.00000120   -0.00001405
     atom  293 type  1   force =     0.00000771    0.00000017    0.00000169
     atom  294 type  1   force =     0.00002705   -0.00000292   -0.00001075
     atom  295 type  1   force =    -0.00001018    0.00002667   -0.00000390
     atom  296 type  1   force =    -0.00001948   -0.00001563    0.00000246
     atom  297 type  1   force =     0.00002518    0.00001955   -0.00001396
     atom  298 type  1   force =     0.00002248   -0.00002003   -0.00001088
     atom  299 type  1   force =     0.00000919    0.00000352   -0.00005134
     atom  300 type  4   force =     0.00000912   -0.00000345   -0.00001882

     Total force =     0.926300     Total SCF correction =     0.000399


     Computing stress (Cartesian axis) and pressure


     negative rho (up, down):  4.018E-02 0.000E+00
          total   stress  (Ry/bohr**3)                   (kbar)     P=        3.03
   0.00004422  -0.00001006  -0.00001793            6.50       -1.48       -2.64
  -0.00001006   0.00005162   0.00000125           -1.48        7.59        0.18
  -0.00001793   0.00000125  -0.00003413           -2.64        0.18       -5.02

     kinetic stress (kbar)   5330.94     -1.07     -2.57
                               -1.07   5334.54     -1.35
                               -2.57     -1.35   5325.86

     local   stress (kbar)-649093.55     52.04    -35.08
                               52.04-649158.02   -114.48
                              -35.08   -114.48 642766.17

     nonloc. stress (kbar)    957.80     -0.37      0.11
                               -0.37    957.53     -0.22
                                0.11     -0.22    954.61

     hartree stress (kbar) 325186.13    -18.39     18.44
                              -18.39 325198.26     40.81
                               18.44     40.81-319334.01

     exc-cor stress (kbar)  -1263.94     -0.08     -0.03
                               -0.08  -1263.63      0.15
                               -0.03      0.15  -1265.56

     corecor stress (kbar)   -292.83      0.01      0.02
                                0.01   -292.86     -0.00
                                0.02     -0.00   -292.76

     ewald   stress (kbar) 319181.95    -33.62     16.48
                              -33.62 319231.77     75.27
                               16.48     75.27-328159.33

     hubbard stress (kbar)      0.00      0.00      0.00
                                0.00      0.00      0.00
                                0.00      0.00      0.00

     DFT-D   stress (kbar)      0.00      0.00      0.00
                                0.00      0.00      0.00
                                0.00      0.00      0.00

     XDM     stress (kbar)      0.00      0.00      0.00
                                0.00      0.00      0.00
                                0.00      0.00      0.00

     dft-nl  stress (kbar)      0.00      0.00      0.00
                                0.00      0.00      0.00
                                0.00      0.00      0.00

     TS-vdW  stress (kbar)      0.00      0.00      0.00
                                0.00      0.00      0.00
                                0.00      0.00      0.00

     MDB     stress (kbar)      0.00      0.00      0.00
                                0.00      0.00      0.00
                                0.00      0.00      0.00

     3D-RISM stress (kbar)      0.00      0.00      0.00
                                0.00      0.00      0.00
                                0.00      0.00      0.00


     Writing all to output data dir ./tmp/pwscf.save/
 
     init_run     :     29.25s CPU     34.06s WALL (       1 calls)
     electrons    :    104.78s CPU    111.44s WALL (       1 calls)
     forces       :      3.08s CPU      3.35s WALL (       1 calls)
     stress       :     80.92s CPU     83.37s WALL (       1 calls)

     Called by init_run:
     wfcinit      :      3.49s CPU      5.39s WALL (       1 calls)
                                        5.39s GPU  (       1 calls)
     wfcinit:atom :      0.01s CPU      0.01s WALL (       1 calls)
                                        0.01s GPU  (       1 calls)
     wfcinit:wfcr :      1.25s CPU      2.41s WALL (       1 calls)
                                        2.41s GPU  (       1 calls)
     potinit      :     16.18s CPU     16.47s WALL (       1 calls)
     hinit0       :      7.26s CPU      7.50s WALL (       1 calls)

     Called by electrons:
     c_bands      :     66.07s CPU     67.84s WALL (      27 calls)
     sum_band     :     14.75s CPU     15.13s WALL (      27 calls)
     v_of_rho     :      2.99s CPU      3.16s WALL (      28 calls)
     v_h          :      1.64s CPU      1.74s WALL (      28 calls)
     v_xc         :      1.48s CPU      1.55s WALL (      30 calls)
     newd         :      2.30s CPU      4.63s WALL (      28 calls)
                                        4.63s GPU  (      28 calls)
     PAW_pot      :      3.03s CPU      3.05s WALL (      28 calls)
     mix_rho      :      7.41s CPU      7.68s WALL (      27 calls)

     Called by c_bands:
     init_us_2    :      0.41s CPU      0.58s WALL (      55 calls)
     init_us_2:gp :      0.41s CPU      0.58s WALL (      55 calls)
     regterg      :     57.58s CPU     59.14s WALL (      29 calls)

     Called by sum_band:
     sum_band:wei :      0.01s CPU      0.01s WALL (      27 calls)
                                        0.01s GPU  (      27 calls)
     sum_band:loo :     11.61s CPU     11.91s WALL (      27 calls)
                                       11.91s GPU  (      27 calls)
     sum_band:buf :      1.75s CPU      1.76s WALL (      27 calls)
                                        1.76s GPU  (      27 calls)
     sum_band:ini :      0.21s CPU      0.43s WALL (      27 calls)
                                        0.43s GPU  (      27 calls)
     sum_band:cal :      1.91s CPU      1.95s WALL (      27 calls)
                                        1.95s GPU  (      27 calls)
     sum_band:bec :      0.19s CPU      0.19s WALL (      27 calls)
                                        0.19s GPU  (      27 calls)
     addusdens    :      1.93s CPU      1.98s WALL (      27 calls)
                                        1.98s GPU  (      27 calls)
     addusd:skk   :      0.41s CPU      0.41s WALL (     108 calls)
                                        0.41s GPU  (     108 calls)

     Called by *egterg:
     rdiaghg      :      5.08s CPU      5.20s WALL (     193 calls)
                                        5.19s GPU  (     193 calls)
     regterg:over :      3.51s CPU      3.60s WALL (     164 calls)
     regterg:upda :      1.89s CPU      1.93s WALL (     164 calls)
     regterg:last :      3.76s CPU      3.77s WALL (      60 calls)
     h_psi        :     37.52s CPU     39.76s WALL (     194 calls)
                                       39.76s GPU  (     194 calls)
     s_psi        :      0.96s CPU      4.59s WALL (     194 calls)
                                        4.44s GPU  (     194 calls)
     g_psi        :      0.00s CPU      0.20s WALL (     164 calls)
                                        0.19s GPU  (     164 calls)

     Called by h_psi:
     h_psi:calbec :      5.36s CPU      5.57s WALL (     194 calls)
                                        5.56s GPU  (     194 calls)
     vloc_psi     :     28.04s CPU     29.42s WALL (     194 calls)
                                       29.41s GPU  (     194 calls)
     add_vuspsi   :      0.39s CPU      4.58s WALL (     194 calls)
                                        4.58s GPU  (     194 calls)

     General routines
     calbec       :      7.65s CPU      8.07s WALL (     226 calls)
     fft          :      5.47s CPU      7.19s WALL (     326 calls)
                                        0.75s GPU  (     298 calls)
     ffts         :      2.82s CPU      3.35s WALL (      55 calls)
                                        0.05s GPU  (      27 calls)
     fftw         :     16.87s CPU     28.42s WALL (   15336 calls)
                                       28.24s GPU  (   15336 calls)
     interpolate  :      8.80s CPU     10.88s WALL (      28 calls)
 
     Parallel routines

     PAW routines
     PAW_pot      :      3.03s CPU      3.05s WALL (      28 calls)
 
     PWSCF        :   3m40.41s CPU   3m59.79s WALL

 
   This run was terminated on:  14:12:26  30Dec2023            

=------------------------------------------------------------------------------=
   JOB DONE.
=------------------------------------------------------------------------------=
