
     Program PWSCF v.7.2 starts on 30Dec2023 at 14: 4:22 

     This program is part of the open-source Quantum ESPRESSO suite
     for quantum simulation of materials; please cite
         "P. Giannozzi et al., J. Phys.:Condens. Matter 21 395502 (2009);
         "P. Giannozzi et al., J. Phys.:Condens. Matter 29 465901 (2017);
         "P. Giannozzi et al., J. Chem. Phys. 152 154105 (2020);
          URL http://www.quantum-espresso.org", 
     in publications or presentations arising from this work. More details at
     http://www.quantum-espresso.org/quote

     Parallel version (MPI & OpenMP), running on       4 processor cores
     Number of MPI processes:                 4
     Threads/MPI process:                     1

     MPI processes distributed on     1 nodes
     504178 MiB available memory on the printing compute node when the environment starts
 
     Reading input from input_0010.inp

     Current dimensions of program PWSCF are:
     Max number of different atomic species (ntypx) = 10
     Max number of k-points (npk) =  40000
     Max angular momentum in pseudopotentials (lmaxx) =  4
     file O.pbe-n-kjpaw_psl.0.1.UPF: wavefunction(s)  2P renormalized

     gamma-point specific algorithms are used
 
     R & G space division:  proc/nbgrp/npool/nimage =       4
     Subspace diagonalization in iterative solution of the eigenvalue problem:
     a serial algorithm will be used

 
     Parallelization info
     --------------------
     sticks:   dense  smooth     PW     G-vecs:    dense   smooth      PW
     Min        6485    4324   1079              2728975  1485363  185656
     Max        6486    4326   1080              2728990  1485382  185664
     Sum       25943   17301   4319             10915929  5941483  742635
 
     Using Slab Decomposition
 


     bravais-lattice index     =            0
     lattice parameter (alat)  =      32.3352  a.u.
     unit-cell volume          =   51510.8153 (a.u.)^3
     number of atoms/cell      =          300
     number of atomic types    =            4
     number of electrons       =      1392.00
     number of Kohn-Sham states=          835
     kinetic-energy cutoff     =      90.0000  Ry
     charge density cutoff     =     540.0000  Ry
     scf convergence threshold =      1.0E-07
     mixing beta               =       0.2000
     number of iterations used =            8  plain     mixing
     Exchange-correlation= SLA  PW   PBX  PBC
                           (   1   4   3   4   0   0   0)

     GPU acceleration is ACTIVE.
     GPU-aware MPI enabled


     GPU used by master process:

        Device Number: 0
        Device name: NVIDIA PG506-243
        Compute capability : 80
        Ratio of single to double precision performance  : 2
        Memory Clock Rate (KHz): 1593000
        Memory Bus Width (bits): 4096
        Peak Memory Bandwidth (GB/s): ******

     celldm(1)=  32.335181  celldm(2)=   0.000000  celldm(3)=   0.000000
     celldm(4)=   0.000000  celldm(5)=   0.000000  celldm(6)=   0.000000

     crystal axes: (cart. coord. in units of alat)
               a(1) = (   1.000000   0.000000   0.000000 )  
               a(2) = (  -0.333333   0.577350   0.000000 )  
               a(3) = (   0.000000  -0.000000   2.638962 )  

     reciprocal axes: (cart. coord. in units 2 pi/alat)
               b(1) = (  1.000000  0.577350  0.000000 )  
               b(2) = ( -0.000000  1.732051  0.000000 )  
               b(3) = (  0.000000 -0.000000  0.378937 )  


     PseudoPot. # 1 for N  read from file:
     /leonardo_scratch/large/userexternal/uraucci0/Li_Cr/PPS/N.pbe-n-radius_5.UPF
     MD5 check sum: 16739722b17309cd8fe442a2ace49922
     Pseudo is Ultrasoft + core correction, Zval =  5.0
     Generated using "atomic" code by A. Dal Corso  v.5.1
     Using radial grid of 1085 points,  4 beta functions with: 
                l(1) =   0
                l(2) =   0
                l(3) =   1
                l(4) =   1
     Q(r) pseudized with 0 coefficients 


     PseudoPot. # 2 for Li read from file:
     /leonardo_scratch/large/userexternal/uraucci0/Li_Cr/PPS/li_pbe_v1.4.uspp.F.UPF
     MD5 check sum: e912e257baa3777c20ea3d68f190483c
     Pseudo is Ultrasoft, Zval =  3.0
     Generated by new atomic code, or converted to UPF format
     Using radial grid of  751 points,  5 beta functions with: 
                l(1) =   0
                l(2) =   0
                l(3) =   0
                l(4) =   1
                l(5) =   1
     Q(r) pseudized with 10 coefficients,  rinner =    1.150   1.150   1.150


     PseudoPot. # 3 for Cr read from file:
     /leonardo_scratch/large/userexternal/uraucci0/Li_Cr/PPS/cr_pbe_v1.5.uspp.F.UPF
     MD5 check sum: 0d52af634a40206e4dee301ad30da4bf
     Pseudo is Ultrasoft + core correction, Zval = 14.0
     Generated by new atomic code, or converted to UPF format
     Using radial grid of  857 points,  6 beta functions with: 
                l(1) =   0
                l(2) =   0
                l(3) =   1
                l(4) =   1
                l(5) =   2
                l(6) =   2
     Q(r) pseudized with  8 coefficients,  rinner =    0.950   0.950   0.950
                                                       0.950   0.950

     PseudoPot. # 4 for O  read from file:
     /leonardo_scratch/large/userexternal/uraucci0/Li_Cr/PPS/O.pbe-n-kjpaw_psl.0.1.UPF
     MD5 check sum: 0234752ac141de4415c5fc33072bef88
     Pseudo is Projector augmented-wave + core cor, Zval =  6.0
     Generated using "atomic" code by A. Dal Corso  v.5.0.99 svn rev. 10869
     Shape of augmentation charge: BESSEL
     Using radial grid of 1095 points,  4 beta functions with: 
                l(1) =   0
                l(2) =   0
                l(3) =   1
                l(4) =   1
     Q(r) pseudized with 0 coefficients 


     atomic species   valence    mass     pseudopotential
        N              5.00    14.00674     N ( 1.00)
        Li             3.00     6.94100     Li( 1.00)
        Cr            14.00    51.99610     Cr( 1.00)
        O              6.00    15.99940     O ( 1.00)

     No symmetry found


                                    s                        frac. trans.

      isym =  1     identity                                     

 cryst.   s( 1) = (     1          0          0      )
                  (     0          1          0      )
                  (     0          0          1      )

 cart.    s( 1) = (  1.0000000  0.0000000  0.0000000 )
                  (  0.0000000  1.0000000  0.0000000 )
                  (  0.0000000  0.0000000  1.0000000 )


   Cartesian axes

     site n.     atom                  positions (alat units)
         1           Li  tau(   1) = (   0.2593273   0.0873080   0.8766270  )
         2           Li  tau(   2) = (   0.1280588   0.1809300   0.8766270  )
         3           Li  tau(   3) = (   0.1126144   0.0204373   0.8766270  )
         4           Li  tau(   4) = (  -0.0990407   0.2053312   1.2715649  )
         5           Li  tau(   5) = (   0.0422373   0.1309190   1.2731546  )
         6           Li  tau(   6) = (   0.0447828   0.2691870   1.2829786  )
         7           Li  tau(   7) = (   0.0669942   0.0904568   1.0336250  )
         8           Li  tau(   8) = (   0.2214985   0.0127904   1.0336250  )
         9           Li  tau(   9) = (   0.2115073   0.1854282   1.0336250  )
        10           Li  tau(  10) = (   0.0958107   0.1896156   1.1173137  )
        11           Li  tau(  11) = (  -0.0617987   0.2511244   1.1377040  )
        12           Li  tau(  12) = (  -0.0502496   0.0903440   1.1187572  )
        13           Li  tau(  13) = (   0.0000000   0.0000000   0.9626942  )
        14           Li  tau(  14) = (   0.6790528   0.5885440   1.2318304  )
        15           Cr  tau(  15) = (   0.1672709   0.0982640   1.2151745  )
        16           Cr  tau(  16) = (  -0.0000000   0.1924500   0.9478909  )
        17           N   tau(  17) = (   0.2658570   0.0888666   1.2383758  )
        18           N   tau(  18) = (   0.1627376   0.0811885   1.1104409  )
        19           N   tau(  19) = (  -0.0969339   0.1982778   0.9168466  )
        20           N   tau(  20) = (   0.0434200   0.1055885   0.9168466  )
        21           N   tau(  21) = (   0.0535141   0.2734837   0.9168466  )
        22           N   tau(  22) = (   0.1199833   0.0140996   1.2509993  )
        23           N   tau(  23) = (   0.1307688   0.1891112   1.2451434  )
        24           N   tau(  24) = (  -0.0000000   0.1924500   1.0497374  )
        25           O   tau(  25) = (  -0.3363945   0.5871180   1.0735115  )
        26           Li  tau(  26) = (   0.2496055   0.1036892   1.3822946  )
        27           Li  tau(  27) = (   0.1202148   0.1828322   1.3785193  )
        28           Li  tau(  28) = (   0.0967177   0.0243743   1.3608231  )
        29           Li  tau(  29) = (  -0.0702406   0.2068968   1.7561468  )
        30           Li  tau(  30) = (   0.0490451   0.0901371   1.7841579  )
        31           Li  tau(  31) = (   0.0522990   0.2783904   1.7542533  )
        32           Li  tau(  32) = (   0.0548353   0.0898841   1.5244017  )
        33           Li  tau(  33) = (   0.2069518   0.0162888   1.5302400  )
        34           Li  tau(  34) = (   0.1997079   0.1815792   1.5217075  )
        35           Li  tau(  35) = (   0.0979035   0.1968928   1.6239631  )
        36           Li  tau(  36) = (  -0.0531202   0.2854671   1.5912416  )
        37           Li  tau(  37) = (  -0.0508611   0.1227938   1.6267683  )
        38           Li  tau(  38) = (  -0.0231403  -0.0008291   1.4678768  )
        39           Li  tau(  39) = (   0.6775917   0.5610278   1.6953790  )
        40           Cr  tau(  40) = (   0.1613578   0.0956225   1.6981258  )
        41           Cr  tau(  41) = (  -0.0060178   0.1936194   1.4416014  )
        42           N   tau(  42) = (   0.2683209   0.0899928   1.7309175  )
        43           N   tau(  43) = (   0.1543851   0.0896532   1.5943156  )
        44           N   tau(  44) = (  -0.0974914   0.1925774   1.4000083  )
        45           N   tau(  45) = (   0.0444844   0.1089367   1.4140928  )
        46           N   tau(  46) = (   0.0469369   0.2779346   1.4101655  )
        47           N   tau(  47) = (   0.1157072   0.0148455   1.7358850  )
        48           N   tau(  48) = (   0.1125390   0.1782299   1.7311337  )
        49           N   tau(  49) = (  -0.0025087   0.1980481   1.5514252  )
        50           O   tau(  50) = (   0.6640625   0.5769795   1.5780863  )
        51           Li  tau(  51) = (   0.0926606   0.3759836   0.8766270  )
        52           Li  tau(  52) = (  -0.0386079   0.4696050   0.8766270  )
        53           Li  tau(  53) = (  -0.0540524   0.3091127   0.8766270  )
        54           Li  tau(  54) = (  -0.2440605   0.4921208   1.2683623  )
        55           Li  tau(  55) = (  -0.1166224   0.3978671   1.2857254  )
        56           Li  tau(  56) = (  -0.1018605   0.5670339   1.2815702  )
        57           Li  tau(  57) = (  -0.0996725   0.3791318   1.0336250  )
        58           Li  tau(  58) = (   0.0548319   0.3014656   1.0336250  )
        59           Li  tau(  59) = (   0.0448406   0.4741032   1.0336250  )
        60           Li  tau(  60) = (  -0.0646401   0.4889305   1.1260273  )
        61           Li  tau(  61) = (  -0.2348396   0.5680940   1.1086993  )
        62           Li  tau(  62) = (  -0.2156444   0.4073685   1.1252267  )
        63           Li  tau(  63) = (  -0.1666667   0.2886750   0.9626942  )
        64           Li  tau(  64) = (  -0.1808996   0.3028734   1.1926393  )
        65           Cr  tau(  65) = (   0.0010527   0.3809838   1.1992900  )
        66           Cr  tau(  66) = (  -0.1666667   0.4811250   0.9478909  )
        67           N   tau(  67) = (   0.1023181   0.3711919   1.2260563  )
        68           N   tau(  68) = (   0.0016102   0.3863646   1.1003714  )
        69           N   tau(  69) = (  -0.2636006   0.4869528   0.9168466  )
        70           N   tau(  70) = (  -0.1232467   0.3942641   0.9168466  )
        71           N   tau(  71) = (  -0.1131527   0.5621587   0.9168466  )
        72           N   tau(  72) = (  -0.0571982   0.3028577   1.2458622  )
        73           N   tau(  73) = (  -0.0339151   0.4645124   1.2458330  )
        74           N   tau(  74) = (  -0.1666667   0.4811250   1.0497374  )
        75           O   tau(  75) = (  -0.1732536   0.2931300   1.0792213  )
        76           Li  tau(  76) = (   0.0831200   0.3858883   1.3515075  )
        77           Li  tau(  77) = (  -0.0397114   0.4789919   1.3621030  )
        78           Li  tau(  78) = (  -0.0780414   0.2940651   1.3609867  )
        79           Li  tau(  79) = (   0.7238952   0.4877973   1.8017139  )
        80           Li  tau(  80) = (  -0.1375083   0.4114688   1.7662864  )
        81           Li  tau(  81) = (  -0.1044244   0.5718769   1.7705995  )
        82           Li  tau(  82) = (  -0.0254354   0.3917202   1.4569306  )
        83           Li  tau(  83) = (   0.0725637   0.2794143   1.5276803  )
        84           Li  tau(  84) = (   0.0422663   0.4985196   1.5384511  )
        85           Li  tau(  85) = (  -0.0730312   0.4942586   1.6066761  )
        86           Li  tau(  86) = (  -0.2349612   0.5625905   1.6076929  )
        87           Li  tau(  87) = (  -0.1990744   0.3936943   1.6013286  )
        88           Li  tau(  88) = (  -0.1737358   0.3187918   1.4752697  )
        89           Li  tau(  89) = (   0.8194066   0.2911179   1.7087271  )
        90           Cr  tau(  90) = (  -0.0012793   0.3850566   1.6938654  )
        91           Cr  tau(  91) = (  -0.1733886   0.4910531   1.4363357  )
        92           N   tau(  92) = (   0.1018389   0.3706092   1.7207135  )
        93           N   tau(  93) = (  -0.0039517   0.3897185   1.5898916  )
        94           N   tau(  94) = (  -0.2723160   0.4993349   1.4008265  )
        95           N   tau(  95) = (  -0.1286906   0.4054113   1.4003648  )
        96           N   tau(  96) = (  -0.1195485   0.5703855   1.4028544  )
        97           N   tau(  97) = (  -0.0578478   0.3114609   1.7151791  )
        98           N   tau(  98) = (  -0.0392442   0.4719707   1.7374513  )
        99           N   tau(  99) = (  -0.1811953   0.4960662   1.5323848  )
       100           O   tau( 100) = (   0.8120020   0.2830985   1.5699337  )
       101           Li  tau( 101) = (   0.5926583   0.0873080   0.8766270  )
       102           Li  tau( 102) = (   0.4613921   0.1809300   0.8766270  )
       103           Li  tau( 103) = (   0.4459477   0.0204373   0.8766270  )
       104           Li  tau( 104) = (   0.2348443   0.2161259   1.2857955  )
       105           Li  tau( 105) = (   0.3619552   0.1178350   1.2798286  )
       106           Li  tau( 106) = (   0.3923794   0.2750049   1.2774851  )
       107           Li  tau( 107) = (   0.4003275   0.0904568   1.0336250  )
       108           Li  tau( 108) = (   0.5548318   0.0127904   1.0336250  )
       109           Li  tau( 109) = (   0.5448406   0.1854282   1.0336250  )
       110           Li  tau( 110) = (   0.4381551   0.1876151   1.1162033  )
       111           Li  tau( 111) = (   0.2772847   0.2620483   1.1236371  )
       112           Li  tau( 112) = (   0.2799374   0.0907993   1.1159344  )
       113           Li  tau( 113) = (   0.3333333   0.0000000   0.9626942  )
       114           Li  tau( 114) = (   0.3454004   0.0086203   1.1903542  )
       115           Cr  tau( 115) = (   0.5086657   0.0888117   1.2084946  )
       116           Cr  tau( 116) = (   0.3333333   0.1924500   0.9478909  )
       117           N   tau( 117) = (   0.6056616   0.0862373   1.2464467  )
       118           N   tau( 118) = (   0.5046081   0.0877802   1.1043279  )
       119           N   tau( 119) = (   0.2363994   0.1982778   0.9168466  )
       120           N   tau( 120) = (   0.3767532   0.1055885   0.9168466  )
       121           N   tau( 121) = (   0.3868473   0.2734837   0.9168466  )
       122           N   tau( 122) = (   0.4518696   0.0091485   1.2385453  )
       123           N   tau( 123) = (   0.4646777   0.1687372   1.2448103  )
       124           N   tau( 124) = (   0.3333333   0.1924500   1.0497374  )
       125           O   tau( 125) = (   0.3264769  -0.0066619   1.0746511  )
       126           Li  tau( 126) = (   0.3286954   0.5798069   1.4462884  )
       127           Li  tau( 127) = (   0.4540682   0.1919871   1.3754043  )
       128           Li  tau( 128) = (   0.5930790   0.0941071   1.3927849  )
       129           Li  tau( 129) = (   0.2250331   0.2024628   1.7813235  )
       130           Li  tau( 130) = (   0.3623006   0.0915543   1.7791436  )
       131           Li  tau( 131) = (   0.3940058   0.2657723   1.8056938  )
       132           Li  tau( 132) = (   0.3959584   0.0962548   1.5412797  )
       133           Li  tau( 133) = (   0.1308804   0.5684978   1.6221398  )
       134           Li  tau( 134) = (   0.5315749   0.1868349   1.5434771  )
       135           Li  tau( 135) = (   0.4201246   0.2019100   1.6323262  )
       136           Li  tau( 136) = (   0.2857389   0.2635953   1.6340034  )
       137           Li  tau( 137) = (   0.3023358   0.1067884   1.6111235  )
       138           Li  tau( 138) = (   0.4402444   0.0130409   1.3772511  )
       139           Li  tau( 139) = (  -0.0011317   0.5698519   1.6771160  )
       140           Cr  tau( 140) = (   0.4990544   0.0905900   1.7130752  )
       141           Cr  tau( 141) = (   0.3359258   0.1991346   1.4491813  )
       142           N   tau( 142) = (   0.5965213   0.0940586   1.7382344  )
       143           N   tau( 143) = (   0.4968131   0.0904065   1.6162839  )
       144           N   tau( 144) = (   0.2411390   0.2112560   1.4194636  )
       145           N   tau( 145) = (   0.3748661   0.1120131   1.4076876  )
       146           N   tau( 146) = (   0.3894556   0.2761024   1.4196331  )
       147           N   tau( 147) = (   0.4519480   0.0069470   1.7428571  )
       148           N   tau( 148) = (   0.4434131   0.1764872   1.7403266  )
       149           N   tau( 149) = (   0.3394101   0.1986606   1.5522141  )
       150           O   tau( 150) = (   0.0033964   0.5845991   1.5702201  )
       151           Li  tau( 151) = (   0.4259940   0.3759836   0.8766270  )
       152           Li  tau( 152) = (   0.2947255   0.4696050   0.8766270  )
       153           Li  tau( 153) = (   0.2792811   0.3091127   0.8766270  )
       154           Li  tau( 154) = (   0.0781554   0.4909456   1.2621091  )
       155           Li  tau( 155) = (   0.2103285   0.3977590   1.2731955  )
       156           Li  tau( 156) = (   0.2169552   0.5473279   1.2796182  )
       157           Li  tau( 157) = (   0.2336608   0.3791318   1.0336250  )
       158           Li  tau( 158) = (   0.3881652   0.3014656   1.0336250  )
       159           Li  tau( 159) = (   0.3781739   0.4741032   1.0336250  )
       160           Li  tau( 160) = (   0.2824609   0.4962761   1.1139883  )
       161           Li  tau( 161) = (   0.1292832   0.5464916   1.1190026  )
       162           Li  tau( 162) = (   0.1266936   0.3970507   1.1179916  )
       163           Li  tau( 163) = (   0.1666667   0.2886750   0.9626942  )
       164           Li  tau( 164) = (   0.1575299   0.2929477   1.1891269  )
       165           Cr  tau( 165) = (   0.3258557   0.3825214   1.1941062  )
       166           Cr  tau( 166) = (   0.1666667   0.4811250   0.9478909  )
       167           N   tau( 167) = (   0.4213069   0.3651940   1.2244024  )
       168           N   tau( 168) = (   0.3289338   0.3864353   1.0874967  )
       169           N   tau( 169) = (   0.0697328   0.4869528   0.9168466  )
       170           N   tau( 170) = (   0.2100866   0.3942641   0.9168466  )
       171           N   tau( 171) = (   0.2201806   0.5621587   0.9168466  )
       172           N   tau( 172) = (   0.2860960   0.3093447   1.2349687  )
       173           N   tau( 173) = (   0.2839658   0.4665818   1.2284466  )
       174           N   tau( 174) = (   0.1666667   0.4811250   1.0497374  )
       175           O   tau( 175) = (   0.1768157   0.2740447   1.0814947  )
       176           Li  tau( 176) = (   0.4193532   0.3863377   1.3651887  )
       177           Li  tau( 177) = (   0.2836625   0.4625160   1.3808686  )
       178           Li  tau( 178) = (   0.2926058   0.3162274   1.3707407  )
       179           Li  tau( 179) = (   0.0762110   0.4818345   1.7766306  )
       180           Li  tau( 180) = (   0.2095086   0.3821831   1.7751112  )
       181           Li  tau( 181) = (   0.2159144   0.5642456   1.7723936  )
       182           Li  tau( 182) = (   0.2483887   0.3538522   1.5221867  )
       183           Li  tau( 183) = (   0.3972581   0.2973682   1.5379310  )
       184           Li  tau( 184) = (   0.3729615   0.4780036   1.5225725  )
       185           Li  tau( 185) = (   0.2635924   0.4635709   1.6040170  )
       186           Li  tau( 186) = (   0.0078908   0.5984323   1.4591397  )
       187           Li  tau( 187) = (   0.1164465   0.3859081   1.6112228  )
       188           Li  tau( 188) = (   0.1677122   0.2827449   1.4476793  )
       189           Li  tau( 189) = (   0.1734389   0.3013586   1.6743107  )
       190           Cr  tau( 190) = (   0.3254197   0.3822345   1.7157401  )
       191           Cr  tau( 191) = (   0.1636026   0.4737199   1.4426124  )
       192           N   tau( 192) = (   0.4318726   0.3821784   1.7536280  )
       193           N   tau( 193) = (   0.3181314   0.3762787   1.6122923  )
       194           N   tau( 194) = (   0.0626841   0.4903430   1.4145019  )
       195           N   tau( 195) = (   0.2085946   0.3929194   1.4083889  )
       196           N   tau( 196) = (   0.2271919   0.5521435   1.4136428  )
       197           N   tau( 197) = (   0.2739290   0.2953941   1.7455864  )
       198           N   tau( 198) = (   0.2791811   0.4651727   1.7344590  )
       199           N   tau( 199) = (   0.1698266   0.4704822   1.5467206  )
       200           O   tau( 200) = (   0.1723922   0.2842708   1.5678824  )
       201           Li  tau( 201) = (   0.9259927   0.0873080   0.8766270  )
       202           Li  tau( 202) = (   0.7947266   0.1809300   0.8766270  )
       203           Li  tau( 203) = (   0.7792805   0.0204373   0.8766270  )
       204           Li  tau( 204) = (   0.5570748   0.2053195   1.2831130  )
       205           Li  tau( 205) = (   0.7105529   0.1073921   1.2836390  )
       206           Li  tau( 206) = (   0.7210841   0.2716936   1.2730085  )
       207           Li  tau( 207) = (   0.7336608   0.0904568   1.0336250  )
       208           Li  tau( 208) = (   0.8881634   0.0127904   1.0336250  )
       209           Li  tau( 209) = (   0.8781757   0.1854282   1.0336250  )
       210           Li  tau( 210) = (   0.7739623   0.2020549   1.1103065  )
       211           Li  tau( 211) = (   0.6175136   0.2767225   1.1279968  )
       212           Li  tau( 212) = (   0.6221597   0.1008051   1.1232806  )
       213           Li  tau( 213) = (   0.6666690   0.0000000   0.9626942  )
       214           Li  tau( 214) = (   0.6557462   0.0047710   1.2020075  )
       215           Cr  tau( 215) = (   0.8319599   0.0981962   1.2013647  )
       216           Cr  tau( 216) = (   0.6666690   0.1924500   0.9478909  )
       217           N   tau( 217) = (   0.9254317   0.0845536   1.2317310  )
       218           N   tau( 218) = (   0.8377573   0.1007759   1.0985129  )
       219           N   tau( 219) = (   0.5697327   0.1982778   0.9168466  )
       220           N   tau( 220) = (   0.7100854   0.1055885   0.9168466  )
       221           N   tau( 221) = (   0.7201783   0.2734837   0.9168466  )
       222           N   tau( 222) = (   0.7732960   0.0251732   1.2291245  )
       223           N   tau( 223) = (   0.7968948   0.1875923   1.2378206  )
       224           N   tau( 224) = (   0.6666690   0.1924500   1.0497374  )
       225           O   tau( 225) = (   0.6849905  -0.0103022   1.0828155  )
       226           Li  tau( 226) = (   0.9391480   0.0927734   1.3484860  )
       227           Li  tau( 227) = (   0.7975494   0.1840192   1.3740076  )
       228           Li  tau( 228) = (   0.7606492   0.0170626   1.3760881  )
       229           Li  tau( 229) = (   0.5774038   0.2037462   1.7815807  )
       230           Li  tau( 230) = (   0.7054334   0.1033935   1.7647553  )
       231           Li  tau( 231) = (   0.7175776   0.2605493   1.7601851  )
       232           Li  tau( 232) = (   0.7114237   0.0781162   1.5298894  )
       233           Li  tau( 233) = (   0.8705607   0.0151538   1.5587713  )
       234           Li  tau( 234) = (   0.8486158   0.1887331   1.5232738  )
       235           Li  tau( 235) = (   0.7896480   0.1962961   1.6338807  )
       236           Li  tau( 236) = (   0.6213707   0.2768739   1.6247053  )
       237           Li  tau( 237) = (   0.6234980   0.1115069   1.6235950  )
       238           Li  tau( 238) = (   0.5596351   0.0018524   1.5305030  )
       239           Li  tau( 239) = (   0.4402023   0.5710547   1.6312508  )
       240           Cr  tau( 240) = (   0.8332865   0.0904469   1.7171603  )
       241           Cr  tau( 241) = (   0.6633027   0.1956608   1.4486903  )
       242           N   tau( 242) = (   0.9327428   0.0652760   1.7369370  )
       243           N   tau( 243) = (   0.8268579   0.0975563   1.6113631  )
       244           N   tau( 244) = (   0.5664074   0.2058221   1.4093356  )
       245           N   tau( 245) = (   0.7031074   0.1093598   1.4135727  )
       246           N   tau( 246) = (   0.7233166   0.2637852   1.4063726  )
       247           N   tau( 247) = (   0.7789123   0.0152476   1.7535286  )
       248           N   tau( 248) = (   0.7937857   0.1715197   1.7439675  )
       249           N   tau( 249) = (   0.6585572   0.1927183   1.5509284  )
       250           O   tau( 250) = (   0.3285750   0.5648376   1.5699629  )
       251           Li  tau( 251) = (   0.7593284   0.3759836   0.8766270  )
       252           Li  tau( 252) = (   0.6280565   0.4696050   0.8766270  )
       253           Li  tau( 253) = (   0.6126161   0.3091127   0.8766270  )
       254           Li  tau( 254) = (   0.4010989   0.4877710   1.2637747  )
       255           Li  tau( 255) = (   0.5152796   0.3824233   1.2779585  )
       256           Li  tau( 256) = (   0.5304376   0.5386510   1.2479837  )
       257           Li  tau( 257) = (   0.5669941   0.3791318   1.0336250  )
       258           Li  tau( 258) = (   0.7214991   0.3014656   1.0336250  )
       259           Li  tau( 259) = (   0.7115055   0.4741032   1.0336250  )
       260           Li  tau( 260) = (   0.6110733   0.5007585   1.1161156  )
       261           Li  tau( 261) = (   0.4541039   0.5700395   1.1167643  )
       262           Li  tau( 262) = (   0.4460436   0.3900563   1.0952227  )
       263           Li  tau( 263) = (   0.5000000   0.2886750   0.9626942  )
       264           Li  tau( 264) = (   0.4859359   0.2896557   1.1752821  )
       265           Cr  tau( 265) = (   0.6605793   0.3843752   1.2025919  )
       266           Cr  tau( 266) = (   0.5000000   0.4811250   0.9478909  )
       267           N   tau( 267) = (   0.7511232   0.3864248   1.2461895  )
       268           N   tau( 268) = (   0.6638871   0.3747031   1.0973032  )
       269           N   tau( 269) = (   0.4030661   0.4869528   0.9168466  )
       270           N   tau( 270) = (   0.5434199   0.3942641   0.9168466  )
       271           N   tau( 271) = (   0.5535140   0.5621587   0.9168466  )
       272           N   tau( 272) = (   0.6079876   0.3061655   1.2465986  )
       273           N   tau( 273) = (   0.6052349   0.4664877   1.2327128  )
       274           N   tau( 274) = (   0.5000000   0.4811250   1.0497374  )
       275           O   tau( 275) = (   0.5002583   0.2821278   1.0680063  )
       276           Li  tau( 276) = (   0.7452907   0.3878537   1.3906343  )
       277           Li  tau( 277) = (   0.6183668   0.4827468   1.3647095  )
       278           Li  tau( 278) = (   0.6258298   0.3033340   1.3630848  )
       279           Li  tau( 279) = (   0.3146810   0.5618320   1.6825919  )
       280           Li  tau( 280) = (   0.5303336   0.3721848   1.7927723  )
       281           Li  tau( 281) = (   0.5551351   0.5444642   1.7668300  )
       282           Li  tau( 282) = (   0.5772933   0.3691435   1.5348394  )
       283           Li  tau( 283) = (   0.7156666   0.2957213   1.5272595  )
       284           Li  tau( 284) = (   0.7044866   0.4866133   1.5144549  )
       285           Li  tau( 285) = (   0.5872582   0.4829747   1.6246586  )
       286           Li  tau( 286) = (   0.3954581   0.4920384   1.7841872  )
       287           Li  tau( 287) = (   0.4338012   0.3916945   1.6218768  )
       288           Li  tau( 288) = (   0.4952562   0.3058674   1.4399825  )
       289           Li  tau( 289) = (   0.5055964   0.2929004   1.6974654  )
       290           Cr  tau( 290) = (   0.6603222   0.3864657   1.7108018  )
       291           Cr  tau( 291) = (   0.4947764   0.4855812   1.4438280  )
       292           N   tau( 292) = (   0.7537940   0.3736190   1.7484968  )
       293           N   tau( 293) = (   0.6683053   0.3917219   1.6073072  )
       294           N   tau( 294) = (   0.3965171   0.4890848   1.4103642  )
       295           N   tau( 295) = (   0.5329775   0.4029124   1.3986875  )
       296           N   tau( 296) = (   0.8890108  -0.0080312   1.4232039  )
       297           N   tau( 297) = (   0.6177999   0.2881192   1.7286382  )
       298           N   tau( 298) = (   0.6116635   0.4569938   1.7539669  )
       299           N   tau( 299) = (   0.4915329   0.4807977   1.5489356  )
       300           O   tau( 300) = (   0.4994880   0.2828530   1.5635460  )

   Crystallographic axes

     site n.     atom                  positions (cryst. coord.)
         1           Li  tau(   1) = (  0.3097346  0.1512218  0.3321863  )
         2           Li  tau(   2) = (  0.2325188  0.3133799  0.3321863  )
         3           Li  tau(   3) = (  0.1244139  0.0353984  0.3321863  )
         4           Li  tau(   4) = (  0.0195073  0.3556440  0.4818428  )
         5           Li  tau(   5) = (  0.1178234  0.2267583  0.4824452  )
         6           Li  tau(   6) = (  0.2001980  0.4662456  0.4861679  )
         7           Li  tau(   7) = (  0.1192194  0.1566758  0.3916786  )
         8           Li  tau(   8) = (  0.2288830  0.0221536  0.3916786  )
         9           Li  tau(   9) = (  0.3185643  0.3211711  0.3916786  )
        10           Li  tau(  10) = (  0.2052853  0.3284238  0.4233913  )
        11           Li  tau(  11) = (  0.0831880  0.4349602  0.4311180  )
        12           Li  tau(  12) = (  0.0019105  0.1564804  0.4239383  )
        13           Li  tau(  13) = (  0.0000000  0.0000000  0.3648003  )
        14           Li  tau(  14) = (  1.0188488  1.0193881  0.4667859  )
        15           Cr  tau(  15) = (  0.2240037  0.1701983  0.4604744  )
        16           Cr  tau(  16) = (  0.1111111  0.3333332  0.3591908  )
        17           N   tau(  17) = (  0.3171642  0.1539215  0.4692663  )
        18           N   tau(  18) = (  0.2096118  0.1406226  0.4207870  )
        19           N   tau(  19) = (  0.0175419  0.3434273  0.3474270  )
        20           N   tau(  20) = (  0.1043816  0.1828847  0.3474270  )
        21           N   tau(  21) = (  0.2114100  0.4736876  0.3474270  )
        22           N   tau(  22) = (  0.1281238  0.0244212  0.4740497  )
        23           N   tau(  23) = (  0.2399522  0.3275503  0.4718307  )
        24           N   tau(  24) = (  0.1111111  0.3333332  0.3977842  )
        25           O   tau(  25) = (  0.0025782  1.0169182  0.4067931  )
        26           Li  tau(  26) = (  0.3094705  0.1795949  0.5238024  )
        27           Li  tau(  27) = (  0.2257730  0.3166747  0.5223718  )
        28           Li  tau(  28) = (  0.1107902  0.0422175  0.5156660  )
        29           Li  tau(  29) = (  0.0492113  0.3583558  0.6654688  )
        30           Li  tau(  30) = (  0.1010858  0.1561221  0.6760832  )
        31           Li  tau(  31) = (  0.2130278  0.4821864  0.6647512  )
        32           Li  tau(  32) = (  0.1067299  0.1556838  0.5776520  )
        33           Li  tau(  33) = (  0.2163561  0.0282130  0.5798644  )
        34           Li  tau(  34) = (  0.3045427  0.3145045  0.5766311  )
        35           Li  tau(  35) = (  0.2115795  0.3410283  0.6153795  )
        36           Li  tau(  36) = (  0.1116943  0.4944436  0.6029801  )
        37           Li  tau(  37) = (  0.0200340  0.2126851  0.6164425  )
        38           Li  tau(  38) = ( -0.0236190 -0.0014360  0.5562326  )
        39           Li  tau(  39) = (  1.0015013  0.9717287  0.6424416  )
        40           Cr  tau(  40) = (  0.2165655  0.1656230  0.6434825  )
        41           Cr  tau(  41) = (  0.1057685  0.3353587  0.5462759  )
        42           N   tau(  42) = (  0.3202783  0.1558721  0.6559084  )
        43           N   tau(  43) = (  0.2061464  0.1552839  0.6041450  )
        44           N   tau(  44) = (  0.0136932  0.3335539  0.5305148  )
        45           N   tau(  45) = (  0.1073790  0.1886839  0.5358519  )
        46           N   tau(  46) = (  0.2074025  0.4813968  0.5343637  )
        47           N   tau(  47) = (  0.1242782  0.0257132  0.6577908  )
        48           N   tau(  48) = (  0.2154401  0.3087033  0.6559904  )
        49           N   tau(  49) = (  0.1118344  0.3430295  0.5878922  )
        50           O   tau(  50) = (  0.9971817  0.9993578  0.5979951  )
        51           Li  tau(  51) = (  0.3097348  0.6512226  0.3321863  )
        52           Li  tau(  52) = (  0.2325186  0.8133797  0.3321863  )
        53           Li  tau(  53) = (  0.1244139  0.5353989  0.3321863  )
        54           Li  tau(  54) = (  0.0400656  0.8523783  0.4806292  )
        55           Li  tau(  55) = (  0.1130863  0.6891260  0.4872087  )
        56           Li  tau(  56) = (  0.2255166  0.9821315  0.4856342  )
        57           Li  tau(  57) = (  0.1192194  0.6566756  0.3916786  )
        58           Li  tau(  58) = (  0.2288831  0.5221537  0.3916786  )
        59           Li  tau(  59) = (  0.3185642  0.8211709  0.3916786  )
        60           Li  tau(  60) = (  0.2176440  0.8468525  0.4266933  )
        61           Li  tau(  61) = (  0.0931496  0.9839677  0.4201270  )
        62           Li  tau(  62) = (  0.0195500  0.7055830  0.4263899  )
        63           Li  tau(  63) = ( -0.0000001  0.4999998  0.3648003  )
        64           Li  tau(  64) = ( -0.0060355  0.5245922  0.4519350  )
        65           Cr  tau(  65) = (  0.2210138  0.6598834  0.4544552  )
        66           Cr  tau(  66) = (  0.1111110  0.8333330  0.3591908  )
        67           N   tau(  67) = (  0.3166259  0.6429232  0.4645979  )
        68           N   tau(  68) = (  0.2246779  0.6692031  0.4169713  )
        69           N   tau(  69) = (  0.0175418  0.8434271  0.3474270  )
        70           N   tau(  70) = (  0.1043818  0.6828855  0.3474270  )
        71           N   tau(  71) = (  0.2114098  0.9736874  0.3474270  )
        72           N   tau(  72) = (  0.1176568  0.5245649  0.4721031  )
        73           N   tau(  73) = (  0.2342713  0.8045590  0.4720921  )
        74           N   tau(  74) = (  0.1111110  0.8333330  0.3977842  )
        75           O   tau(  75) = ( -0.0040149  0.5077161  0.4089567  )
        76           Li  tau(  76) = (  0.3059127  0.6683781  0.5121360  )
        77           Li  tau(  77) = (  0.2368347  0.8296383  0.5161510  )
        78           Li  tau(  78) = (  0.0917371  0.5093357  0.5157280  )
        79           Li  tau(  79) = (  1.0055251  0.8448897  0.6827358  )
        80           Li  tau(  80) = (  0.1000533  0.7126849  0.6693110  )
        81           Li  tau(  81) = (  0.2257489  0.9905199  0.6709454  )
        82           Li  tau(  82) = (  0.2007243  0.6784792  0.5520847  )
        83           Li  tau(  83) = (  0.2338836  0.4839598  0.5788944  )
        84           Li  tau(  84) = (  0.3300867  0.8634613  0.5829758  )
        85           Li  tau(  85) = (  0.2123292  0.8560811  0.6088288  )
        86           Li  tau(  86) = (  0.0898506  0.9744354  0.6092141  )
        87           Li  tau(  87) = (  0.0282251  0.6818986  0.6068024  )
        88           Li  tau(  88) = (  0.0103188  0.5521636  0.5590341  )
        89           Li  tau(  89) = (  0.9874836  0.5042310  0.6474997  )
        90           Cr  tau(  90) = (  0.2210332  0.6669377  0.6418680  )
        91           Cr  tau(  91) = (  0.1101210  0.8505289  0.5442806  )
        92           N   tau(  92) = (  0.3158103  0.6419140  0.6520418  )
        93           N   tau(  93) = (  0.2210524  0.6750123  0.6024685  )
        94           N   tau(  94) = (  0.0159752  0.8648734  0.5308248  )
        95           N   tau(  95) = (  0.1053738  0.7021930  0.5306499  )
        96           N   tau(  96) = (  0.2097637  0.9879367  0.5315933  )
        97           N   tau(  97) = (  0.1219742  0.5394661  0.6499446  )
        98           N   tau(  98) = (  0.2332482  0.8174772  0.6583843  )
        99           N   tau(  99) = (  0.1052087  0.8592119  0.5806771  )
       100           O   tau( 100) = (  0.9754490  0.4903410  0.5949057  )
       101           Li  tau( 101) = (  0.6430655  0.1512218  0.3321863  )
       102           Li  tau( 102) = (  0.5658521  0.3133799  0.3321863  )
       103           Li  tau( 103) = (  0.4577472  0.0353984  0.3321863  )
       104           Li  tau( 104) = (  0.3596246  0.3743411  0.4872353  )
       105           Li  tau( 105) = (  0.4299873  0.2040963  0.4849742  )
       106           Li  tau( 106) = (  0.5511535  0.4763224  0.4840862  )
       107           Li  tau( 107) = (  0.4525527  0.1566758  0.3916786  )
       108           Li  tau( 108) = (  0.5622164  0.0221536  0.3916786  )
       109           Li  tau( 109) = (  0.6518976  0.3211711  0.3916786  )
       110           Li  tau( 110) = (  0.5464747  0.3249589  0.4229706  )
       111           Li  tau( 111) = (  0.4285784  0.4538810  0.4257875  )
       112           Li  tau( 112) = (  0.3323604  0.1572689  0.4228687  )
       113           Li  tau( 113) = (  0.3333333  0.0000000  0.3648003  )
       114           Li  tau( 114) = (  0.3503773  0.0149309  0.4510691  )
       115           Cr  tau( 115) = (  0.5599412  0.1538263  0.4579431  )
       116           Cr  tau( 116) = (  0.4444444  0.3333332  0.3591908  )
       117           N   tau( 117) = (  0.6554507  0.1493674  0.4723246  )
       118           N   tau( 118) = (  0.5552880  0.1520397  0.4184705  )
       119           N   tau( 119) = (  0.3508752  0.3434273  0.3474270  )
       120           N   tau( 120) = (  0.4377148  0.1828847  0.3474270  )
       121           N   tau( 121) = (  0.5447432  0.4736876  0.3474270  )
       122           N   tau( 122) = (  0.4571516  0.0158457  0.4693305  )
       123           N   tau( 123) = (  0.5620982  0.2922615  0.4717045  )
       124           N   tau( 124) = (  0.4444444  0.3333332  0.3977842  )
       125           O   tau( 125) = (  0.3226307 -0.0115387  0.4072249  )
       126           Li  tau( 126) = (  0.6634471  1.0042550  0.5480520  )
       127           Li  tau( 127) = (  0.5649121  0.3325315  0.5211914  )
       128           Li  tau( 128) = (  0.6474118  0.1629982  0.5277775  )
       129           Li  tau( 129) = (  0.3419250  0.3506759  0.6750091  )
       130           Li  tau( 130) = (  0.4151595  0.1585768  0.6741831  )
       131           Li  tau( 131) = (  0.5474495  0.4603311  0.6842439  )
       132           Li  tau( 132) = (  0.4515311  0.1667182  0.5840477  )
       133           Li  tau( 133) = (  0.4591028  0.9846672  0.6146885  )
       134           Li  tau( 134) = (  0.6394441  0.3236076  0.5848804  )
       135           Li  tau( 135) = (  0.5366974  0.3497183  0.6185486  )
       136           Li  tau( 136) = (  0.4379257  0.4565605  0.6191841  )
       137           Li  tau( 137) = (  0.3639901  0.1849629  0.6105141  )
       138           Li  tau( 138) = (  0.4477736  0.0225875  0.5218912  )
       139           Li  tau( 139) = (  0.3278724  0.9870125  0.6355211  )
       140           Cr  tau( 140) = (  0.5513566  0.1569066  0.6491473  )
       141           Cr  tau( 141) = (  0.4508962  0.3449112  0.5491482  )
       142           N   tau( 142) = (  0.6508260  0.1629142  0.6586811  )
       143           N   tau( 143) = (  0.5490094  0.1565887  0.6124695  )
       144           N   tau( 144) = (  0.3631077  0.3659061  0.5378871  )
       145           N   tau( 145) = (  0.4395369  0.1940123  0.5334247  )
       146           N   tau( 146) = (  0.5488634  0.4782234  0.5379513  )
       147           N   tau( 147) = (  0.4559588  0.0120325  0.6604328  )
       148           N   tau( 148) = (  0.5453081  0.3056848  0.6594739  )
       149           N   tau( 149) = (  0.4541069  0.3440903  0.5881912  )
       150           O   tau( 150) = (  0.3409149  1.0125554  0.5950143  )
       151           Li  tau( 151) = (  0.6430682  0.6512226  0.3321863  )
       152           Li  tau( 152) = (  0.5658520  0.8133797  0.3321863  )
       153           Li  tau( 153) = (  0.4577474  0.5353989  0.3321863  )
       154           Li  tau( 154) = (  0.3616029  0.8503427  0.4782596  )
       155           Li  tau( 155) = (  0.4399748  0.6889387  0.4824607  )
       156           Li  tau( 156) = (  0.5329551  0.9479997  0.4848945  )
       157           Li  tau( 157) = (  0.4525527  0.6566756  0.3916786  )
       158           Li  tau( 158) = (  0.5622164  0.5221537  0.3916786  )
       159           Li  tau( 159) = (  0.6518976  0.8211709  0.3916786  )
       160           Li  tau( 160) = (  0.5689860  0.8595753  0.4221312  )
       161           Li  tau( 161) = (  0.4448003  0.9465512  0.4240313  )
       162           Li  tau( 162) = (  0.3559309  0.6877119  0.4236482  )
       163           Li  tau( 163) = (  0.3333333  0.4999998  0.3648003  )
       164           Li  tau( 164) = (  0.3266633  0.5074003  0.4506040  )
       165           Cr  tau( 165) = (  0.5467045  0.6625466  0.4524909  )
       166           Cr  tau( 166) = (  0.4444443  0.8333330  0.3591908  )
       167           N   tau( 167) = (  0.6321518  0.6325346  0.4639712  )
       168           N   tau( 168) = (  0.5520423  0.6693255  0.4120926  )
       169           N   tau( 169) = (  0.3508751  0.8434271  0.3474270  )
       170           N   tau( 170) = (  0.4377151  0.6828855  0.3474270  )
       171           N   tau( 171) = (  0.5447431  0.9736874  0.3474270  )
       172           N   tau( 172) = (  0.4646962  0.5358007  0.4679752  )
       173           N   tau( 173) = (  0.5533469  0.8081433  0.4655037  )
       174           N   tau( 174) = (  0.4444443  0.8333330  0.3977842  )
       175           O   tau( 175) = (  0.3350354  0.4746593  0.4098182  )
       176           Li  tau( 176) = (  0.6424054  0.6691565  0.5173203  )
       177           Li  tau( 177) = (  0.5506962  0.8011012  0.5232620  )
       178           Li  tau( 178) = (  0.4751798  0.5477219  0.5194242  )
       179           Li  tau( 179) = (  0.3543983  0.8345618  0.6732308  )
       180           Li  tau( 180) = (  0.4301621  0.6619605  0.6726551  )
       181           Li  tau( 181) = (  0.5416818  0.9773021  0.6716253  )
       182           Li  tau( 182) = (  0.4526854  0.6128900  0.5768127  )
       183           Li  tau( 183) = (  0.5689437  0.5150569  0.5827787  )
       184           Li  tau( 184) = (  0.6489371  0.8279266  0.5769588  )
       185           Li  tau( 185) = (  0.5312351  0.8029283  0.6078212  )
       186           Li  tau( 186) = (  0.3533959  1.0365152  0.5529218  )
       187           Li  tau( 187) = (  0.3392506  0.6684125  0.6105517  )
       188           Li  tau( 188) = (  0.3309550  0.4897286  0.5485791  )
       189           Li  tau( 189) = (  0.3474284  0.5219685  0.6344581  )
       190           Cr  tau( 190) = (  0.5461029  0.6620495  0.6501572  )
       191           Cr  tau( 191) = (  0.4371048  0.8205069  0.5466590  )
       192           N   tau( 192) = (  0.6525234  0.6619524  0.6645143  )
       193           N   tau( 193) = (  0.5353760  0.6517338  0.6109570  )
       194           N   tau( 194) = (  0.3457838  0.8492991  0.5360069  )
       195           N   tau( 195) = (  0.4354467  0.6805564  0.5336905  )
       196           N   tau( 196) = (  0.5459721  0.9563406  0.5356814  )
       197           N   tau( 197) = (  0.4444748  0.5116375  0.6614670  )
       198           N   tau( 198) = (  0.5477488  0.8057028  0.6572505  )
       199           N   tau( 199) = (  0.4414596  0.8148990  0.5861095  )
       200           O   tau( 200) = (  0.3365160  0.4923715  0.5941284  )
       201           Li  tau( 201) = (  0.9764000  0.1512218  0.3321863  )
       202           Li  tau( 202) = (  0.8991866  0.3133799  0.3321863  )
       203           Li  tau( 203) = (  0.7910799  0.0353984  0.3321863  )
       204           Li  tau( 204) = (  0.6756161  0.3556238  0.4862188  )
       205           Li  tau( 205) = (  0.7725557  0.1860085  0.4864181  )
       206           Li  tau( 206) = (  0.8779465  0.4705871  0.4823898  )
       207           Li  tau( 207) = (  0.7858861  0.1566758  0.3916786  )
       208           Li  tau( 208) = (  0.8955479  0.0221536  0.3916786  )
       209           Li  tau( 209) = (  0.9852327  0.3211711  0.3916786  )
       210           Li  tau( 210) = (  0.8906187  0.3499694  0.4207361  )
       211           Li  tau( 211) = (  0.7772794  0.4792974  0.4274396  )
       212           Li  tau( 212) = (  0.6803595  0.1745995  0.4256524  )
       213           Li  tau( 213) = (  0.6666690  0.0000000  0.3648003  )
       214           Li  tau( 214) = (  0.6585007  0.0082636  0.4554850  )
       215           Cr  tau( 215) = (  0.8886535  0.1700809  0.4552414  )
       216           Cr  tau( 216) = (  0.7777800  0.3333332  0.3591908  )
       217           N   tau( 217) = (  0.9742487  0.1464511  0.4667483  )
       218           N   tau( 218) = (  0.8959403  0.1745489  0.4162670  )
       219           N   tau( 219) = (  0.6842085  0.3434273  0.3474270  )
       220           N   tau( 220) = (  0.7710469  0.1828847  0.3474270  )
       221           N   tau( 221) = (  0.8780741  0.4736876  0.3474270  )
       222           N   tau( 222) = (  0.7878298  0.0436013  0.4657606  )
       223           N   tau( 223) = (  0.9052013  0.3249194  0.4690559  )
       224           N   tau( 224) = (  0.7777800  0.3333332  0.3977842  )
       225           O   tau( 225) = (  0.6790425 -0.0178439  0.4103187  )
       226           Li  tau( 226) = (  0.9927108  0.1606883  0.5109911  )
       227           Li  tau( 227) = (  0.9037929  0.3187306  0.5206621  )
       228           Li  tau( 228) = (  0.7705003  0.0295533  0.5214505  )
       229           Li  tau( 229) = (  0.6950367  0.3528988  0.6751066  )
       230           Li  tau( 230) = (  0.7651277  0.1790828  0.6687308  )
       231           Li  tau( 231) = (  0.8680058  0.4512846  0.6669990  )
       232           Li  tau( 232) = (  0.7565241  0.1353013  0.5797315  )
       233           Li  tau( 233) = (  0.8793098  0.0262472  0.5906759  )
       234           Li  tau( 234) = (  0.9575809  0.3268953  0.5772246  )
       235           Li  tau( 235) = (  0.9029796  0.3399948  0.6191376  )
       236           Li  tau( 236) = (  0.7812239  0.4795596  0.6156607  )
       237           Li  tau( 237) = (  0.6878766  0.1931357  0.6152400  )
       238           Li  tau( 238) = (  0.5607046  0.0032084  0.5799640  )
       239           Li  tau( 239) = (  0.7699009  0.9890957  0.6181411  )
       240           Cr  tau( 240) = (  0.8855060  0.1566586  0.6506953  )
       241           Cr  tau( 241) = (  0.7762675  0.3388944  0.5489622  )
       242           N   tau( 242) = (  0.9704299  0.1130613  0.6581894  )
       243           N   tau( 243) = (  0.8831821  0.1689725  0.6106049  )
       244           N   tau( 244) = (  0.6852388  0.3564943  0.5340492  )
       245           N   tau( 245) = (  0.7662463  0.1894167  0.5356548  )
       246           N   tau( 246) = (  0.8756131  0.4568894  0.5329264  )
       247           N   tau( 247) = (  0.7877155  0.0264096  0.6644766  )
       248           N   tau( 248) = (  0.8928126  0.2970808  0.6608536  )
       249           N   tau( 249) = (  0.7698232  0.3337978  0.5877039  )
       250           O   tau( 250) = (  0.6546841  0.9783275  0.5949168  )
       251           Li  tau( 251) = (  0.9764026  0.6512226  0.3321863  )
       252           Li  tau( 252) = (  0.8991830  0.8133797  0.3321863  )
       253           Li  tau( 253) = (  0.7910824  0.5353989  0.3321863  )
       254           Li  tau( 254) = (  0.6827136  0.8448442  0.4788908  )
       255           Li  tau( 255) = (  0.7360717  0.6623765  0.4842656  )
       256           Li  tau( 256) = (  0.8414279  0.9329710  0.4729070  )
       257           Li  tau( 257) = (  0.7858860  0.6566756  0.3916786  )
       258           Li  tau( 258) = (  0.8955503  0.5221537  0.3916786  )
       259           Li  tau( 259) = (  0.9852291  0.8211709  0.3916786  )
       260           Li  tau( 260) = (  0.9001864  0.8673392  0.4229373  )
       261           Li  tau( 261) = (  0.7832164  0.9873374  0.4231832  )
       262           Li  tau( 262) = (  0.6712427  0.6755974  0.4150202  )
       263           Li  tau( 263) = (  0.6666666  0.4999998  0.3648003  )
       264           Li  tau( 264) = (  0.6531687  0.5016983  0.4453577  )
       265           Cr  tau( 265) = (  0.8824985  0.6657574  0.4557064  )
       266           Cr  tau( 266) = (  0.7777776  0.8333330  0.3591908  )
       267           N   tau( 267) = (  0.9742256  0.6693073  0.4722271  )
       268           N   tau( 268) = (  0.8802221  0.6490048  0.4158086  )
       269           N   tau( 269) = (  0.6842084  0.8434271  0.3474270  )
       270           N   tau( 270) = (  0.7710484  0.6828855  0.3474270  )
       271           N   tau( 271) = (  0.8780764  0.9736874  0.3474270  )
       272           N   tau( 272) = (  0.7847523  0.5302942  0.4723822  )
       273           N   tau( 273) = (  0.8745617  0.8079804  0.4671203  )
       274           N   tau( 274) = (  0.7777776  0.8333330  0.3977842  )
       275           O   tau( 275) = (  0.6631448  0.4886596  0.4047070  )
       276           Li  tau( 276) = (  0.9692181  0.6717823  0.5269626  )
       277           Li  tau( 277) = (  0.8970808  0.8361419  0.5171387  )
       278           Li  tau( 278) = (  0.8009598  0.5253898  0.5165231  )
       279           Li  tau( 279) = (  0.6390549  0.9731215  0.6375961  )
       280           Li  tau( 280) = (  0.7452146  0.6446430  0.6793475  )
       281           Li  tau( 281) = (  0.8694817  0.9430397  0.6695170  )
       282           Li  tau( 282) = (  0.7904184  0.6393753  0.5816072  )
       283           Li  tau( 283) = (  0.8864014  0.5122044  0.5787349  )
       284           Li  tau( 284) = (  0.9854330  0.8428389  0.5738828  )
       285           Li  tau( 285) = (  0.8661038  0.8365367  0.6156430  )
       286           Li  tau( 286) = (  0.6795366  0.8522356  0.6760943  )
       287           Li  tau( 287) = (  0.6599461  0.6784347  0.6145889  )
       288           Li  tau( 288) = (  0.6718489  0.5297779  0.5456625  )
       289           Li  tau( 289) = (  0.6747025  0.5073183  0.6432322  )
       290           Cr  tau( 290) = (  0.8834482  0.6693782  0.6482859  )
       291           Cr  tau( 291) = (  0.7751269  0.8410513  0.5471196  )
       292           N   tau( 292) = (  0.9695030  0.6471271  0.6625699  )
       293           N   tau( 293) = (  0.8944661  0.6784823  0.6090680  )
       294           N   tau( 294) = (  0.6788903  0.8471197  0.5344390  )
       295           N   tau( 295) = (  0.7655991  0.6978647  0.5300143  )
       296           N   tau( 296) = (  0.8843740 -0.0139104  0.5393044  )
       297           N   tau( 297) = (  0.7841456  0.4990371  0.6550448  )
       298           N   tau( 298) = (  0.8755090  0.7915365  0.6646427  )
       299           N   tau( 299) = (  0.7691216  0.8327661  0.5869488  )
       300           O   tau( 300) = (  0.6627933  0.4899158  0.5924852  )

     number of k points=     1  Gaussian smearing, width (Ry)=  0.0147
                       cart. coord. in units 2pi/alat
        k(    1) = (   0.0000000   0.0000000   0.0000000), wk =   2.0000000

                       cryst. coord.
        k(    1) = (   0.0000000   0.0000000   0.0000000), wk =   2.0000000

     Dense  grid:  5457965 G-vectors     FFT dimensions: ( 240, 160, 640)

     Smooth grid:  2970742 G-vectors     FFT dimensions: ( 200, 135, 540)

     Dynamical RAM for                 wfc:    1182.84 MB

     Dynamical RAM for     wfc (w. buffer):    1182.84 MB

     Dynamical RAM for           str. fact:      83.28 MB

     Dynamical RAM for           local pot:       0.00 MB

     Dynamical RAM for          nlocal pot:    3977.76 MB

     Dynamical RAM for                qrad:       7.46 MB

     Dynamical RAM for          rho,v,vnew:     203.09 MB

     Dynamical RAM for               rhoin:      67.70 MB

     Dynamical RAM for            rho*nmix:     333.13 MB

     Dynamical RAM for           G-vectors:      83.74 MB

     Dynamical RAM for          h,s,v(r/c):      63.83 MB

     Dynamical RAM for          <psi|beta>:      17.89 MB

     Dynamical RAM for                 psi:    2365.69 MB

     Dynamical RAM for                hpsi:    2365.69 MB

     Dynamical RAM for                spsi:    2365.69 MB

     Dynamical RAM for      wfcinit/wfcrot:    4336.08 MB

     Dynamical RAM for           addusdens:    7370.47 MB

     Dynamical RAM for          addusforce:   14335.60 MB

     Dynamical RAM for         addusstress:    4184.93 MB

     Estimated static dynamical RAM per process >       5.81 GB

     Estimated max dynamical RAM per process >      20.13 GB

     Estimated total dynamical RAM >      80.52 GB

     Check: negative core charge=   -0.000002

     Initial potential from superposition of free atoms

     starting charge    1292.2742, renormalised to    1392.0000

     negative rho (up, down):  2.499E-02 0.000E+00
     Starting wfcs are 1512 randomized atomic wfcs
     Checking if some PAW data can be deallocated... 

     total cpu time spent up to now is       37.5 secs

     per-process dynamical memory:  1708.5 Mb

     Self-consistent Calculation
[tb_dev] Currently allocated     1.26E+02 Mbytes, locked:    0 /  11
[tb_pin] Currently allocated     0.00E+00 Mbytes, locked:    0 /   0

     iteration #  1     ecut=    90.00 Ry     beta= 0.20
     Davidson diagonalization with overlap

---- Real-time Memory Report at c_bands before calling an iterative solver
         10171 MiB given to the printing process from OS
          1746 MiB allocation reported by mallinfo(arena+hblkhd)
        465831 MiB available memory on the node where the printing process lives
     GPU memory used/free/total (MiB): 16367 / 48601 / 64969
------------------
     ethr =  1.00E-02,  avg # of iterations =  3.0

     negative rho (up, down):  4.039E-02 0.000E+00

     total cpu time spent up to now is       41.2 secs

     total energy              =   -9071.80781639 Ry
     estimated scf accuracy    <     235.85811927 Ry
[tb_dev] Currently allocated     2.41E+01 Mbytes, locked:    0 /   6
[tb_pin] Currently allocated     0.00E+00 Mbytes, locked:    0 /   0

     iteration #  2     ecut=    90.00 Ry     beta= 0.20
     Davidson diagonalization with overlap

---- Real-time Memory Report at c_bands before calling an iterative solver
         10502 MiB given to the printing process from OS
          2013 MiB allocation reported by mallinfo(arena+hblkhd)
        464861 MiB available memory on the node where the printing process lives
     GPU memory used/free/total (MiB): 31251 / 33717 / 64969
------------------
     ethr =  1.00E-02,  avg # of iterations =  5.0

     negative rho (up, down):  5.755E-02 0.000E+00

     total cpu time spent up to now is       45.0 secs

     total energy              =   -9077.75728950 Ry
     estimated scf accuracy    <      33.03381154 Ry
[tb_dev] Currently allocated     2.41E+01 Mbytes, locked:    0 /   6
[tb_pin] Currently allocated     0.00E+00 Mbytes, locked:    0 /   0

     iteration #  3     ecut=    90.00 Ry     beta= 0.20
     Davidson diagonalization with overlap

---- Real-time Memory Report at c_bands before calling an iterative solver
         10526 MiB given to the printing process from OS
          2037 MiB allocation reported by mallinfo(arena+hblkhd)
        464730 MiB available memory on the node where the printing process lives
     GPU memory used/free/total (MiB): 31251 / 33717 / 64969
------------------
     ethr =  2.37E-03,  avg # of iterations =  7.0

     negative rho (up, down):  4.325E-02 0.000E+00

     total cpu time spent up to now is       50.5 secs

     total energy              =   -9088.10767929 Ry
     estimated scf accuracy    <     322.75506053 Ry
[tb_dev] Currently allocated     2.41E+01 Mbytes, locked:    0 /   6
[tb_pin] Currently allocated     0.00E+00 Mbytes, locked:    0 /   0

     iteration #  4     ecut=    90.00 Ry     beta= 0.20
     Davidson diagonalization with overlap

---- Real-time Memory Report at c_bands before calling an iterative solver
         10529 MiB given to the printing process from OS
         -2035 MiB allocation reported by mallinfo(arena+hblkhd)
        464480 MiB available memory on the node where the printing process lives
     GPU memory used/free/total (MiB): 31251 / 33717 / 64969
------------------
     ethr =  2.37E-03,  avg # of iterations =  2.0

     negative rho (up, down):  3.369E-02 0.000E+00

     total cpu time spent up to now is       53.9 secs

     total energy              =   -9089.85618144 Ry
     estimated scf accuracy    <      37.02338821 Ry
[tb_dev] Currently allocated     2.41E+01 Mbytes, locked:    0 /   6
[tb_pin] Currently allocated     0.00E+00 Mbytes, locked:    0 /   0

     iteration #  5     ecut=    90.00 Ry     beta= 0.20
     Davidson diagonalization with overlap

---- Real-time Memory Report at c_bands before calling an iterative solver
         10552 MiB given to the printing process from OS
         -2011 MiB allocation reported by mallinfo(arena+hblkhd)
        464385 MiB available memory on the node where the printing process lives
     GPU memory used/free/total (MiB): 31251 / 33717 / 64969
------------------
     ethr =  2.37E-03,  avg # of iterations =  2.0

     negative rho (up, down):  3.012E-02 0.000E+00

     total cpu time spent up to now is       57.5 secs

     total energy              =   -9101.29546727 Ry
     estimated scf accuracy    <      20.87246829 Ry
[tb_dev] Currently allocated     2.41E+01 Mbytes, locked:    0 /   6
[tb_pin] Currently allocated     0.00E+00 Mbytes, locked:    0 /   0

     iteration #  6     ecut=    90.00 Ry     beta= 0.20
     Davidson diagonalization with overlap

---- Real-time Memory Report at c_bands before calling an iterative solver
         10576 MiB given to the printing process from OS
         -1988 MiB allocation reported by mallinfo(arena+hblkhd)
        464264 MiB available memory on the node where the printing process lives
     GPU memory used/free/total (MiB): 31423 / 33545 / 64969
------------------
     ethr =  1.50E-03,  avg # of iterations =  4.0

     negative rho (up, down):  3.446E-02 0.000E+00

     total cpu time spent up to now is       61.0 secs

     total energy              =   -9093.72560931 Ry
     estimated scf accuracy    <      46.27887432 Ry
[tb_dev] Currently allocated     2.41E+01 Mbytes, locked:    0 /   6
[tb_pin] Currently allocated     0.00E+00 Mbytes, locked:    0 /   0

     iteration #  7     ecut=    90.00 Ry     beta= 0.20
     Davidson diagonalization with overlap

---- Real-time Memory Report at c_bands before calling an iterative solver
         10599 MiB given to the printing process from OS
         -1964 MiB allocation reported by mallinfo(arena+hblkhd)
        464088 MiB available memory on the node where the printing process lives
     GPU memory used/free/total (MiB): 31423 / 33545 / 64969
------------------
     ethr =  1.50E-03,  avg # of iterations =  2.0

     negative rho (up, down):  3.404E-02 0.000E+00

     total cpu time spent up to now is       64.5 secs

     total energy              =   -9096.34479920 Ry
     estimated scf accuracy    <       4.99132781 Ry
[tb_dev] Currently allocated     2.41E+01 Mbytes, locked:    0 /   6
[tb_pin] Currently allocated     0.00E+00 Mbytes, locked:    0 /   0

     iteration #  8     ecut=    90.00 Ry     beta= 0.20
     Davidson diagonalization with overlap

---- Real-time Memory Report at c_bands before calling an iterative solver
         10623 MiB given to the printing process from OS
         -1941 MiB allocation reported by mallinfo(arena+hblkhd)
        464042 MiB available memory on the node where the printing process lives
     GPU memory used/free/total (MiB): 31423 / 33545 / 64969
------------------
     ethr =  3.59E-04,  avg # of iterations =  9.0

     negative rho (up, down):  3.703E-02 0.000E+00

     total cpu time spent up to now is       68.2 secs

     total energy              =   -9095.04262519 Ry
     estimated scf accuracy    <       5.95595395 Ry
[tb_dev] Currently allocated     2.41E+01 Mbytes, locked:    0 /   6
[tb_pin] Currently allocated     0.00E+00 Mbytes, locked:    0 /   0

     iteration #  9     ecut=    90.00 Ry     beta= 0.20
     Davidson diagonalization with overlap

---- Real-time Memory Report at c_bands before calling an iterative solver
         10646 MiB given to the printing process from OS
         -1917 MiB allocation reported by mallinfo(arena+hblkhd)
        463894 MiB available memory on the node where the printing process lives
     GPU memory used/free/total (MiB): 31423 / 33545 / 64969
------------------
     ethr =  3.59E-04,  avg # of iterations =  2.0

     negative rho (up, down):  3.705E-02 0.000E+00

     total cpu time spent up to now is       71.9 secs

     total energy              =   -9096.01364447 Ry
     estimated scf accuracy    <       1.64233379 Ry
[tb_dev] Currently allocated     2.41E+01 Mbytes, locked:    0 /   6
[tb_pin] Currently allocated     0.00E+00 Mbytes, locked:    0 /   0

     iteration # 10     ecut=    90.00 Ry     beta= 0.20
     Davidson diagonalization with overlap

---- Real-time Memory Report at c_bands before calling an iterative solver
         10670 MiB given to the printing process from OS
         -1894 MiB allocation reported by mallinfo(arena+hblkhd)
        463773 MiB available memory on the node where the printing process lives
     GPU memory used/free/total (MiB): 31423 / 33545 / 64969
------------------
     ethr =  1.18E-04,  avg # of iterations = 22.0

     negative rho (up, down):  3.642E-02 0.000E+00

     total cpu time spent up to now is       77.8 secs

     total energy              =   -9095.80266527 Ry
     estimated scf accuracy    <       1.41995022 Ry
[tb_dev] Currently allocated     2.41E+01 Mbytes, locked:    0 /   6
[tb_pin] Currently allocated     0.00E+00 Mbytes, locked:    0 /   0

     iteration # 11     ecut=    90.00 Ry     beta= 0.20
     Davidson diagonalization with overlap

---- Real-time Memory Report at c_bands before calling an iterative solver
         10670 MiB given to the printing process from OS
         -1894 MiB allocation reported by mallinfo(arena+hblkhd)
        463772 MiB available memory on the node where the printing process lives
     GPU memory used/free/total (MiB): 31445 / 33523 / 64969
------------------
     ethr =  1.02E-04,  avg # of iterations =  2.0

     negative rho (up, down):  3.702E-02 0.000E+00

     total cpu time spent up to now is       81.3 secs

     total energy              =   -9095.90663504 Ry
     estimated scf accuracy    <       0.18752994 Ry
[tb_dev] Currently allocated     2.41E+01 Mbytes, locked:    0 /   6
[tb_pin] Currently allocated     0.00E+00 Mbytes, locked:    0 /   0

     iteration # 12     ecut=    90.00 Ry     beta= 0.20
     Davidson diagonalization with overlap

---- Real-time Memory Report at c_bands before calling an iterative solver
         10670 MiB given to the printing process from OS
         -1894 MiB allocation reported by mallinfo(arena+hblkhd)
        463772 MiB available memory on the node where the printing process lives
     GPU memory used/free/total (MiB): 31445 / 33523 / 64969
------------------
     c_bands:  5 eigenvalues not converged
     ethr =  1.35E-05,  avg # of iterations = 20.0

     negative rho (up, down):  3.788E-02 0.000E+00

     total cpu time spent up to now is       86.5 secs

     total energy              =   -9095.89068773 Ry
     estimated scf accuracy    <       0.11516319 Ry
[tb_dev] Currently allocated     2.41E+01 Mbytes, locked:    0 /   6
[tb_pin] Currently allocated     0.00E+00 Mbytes, locked:    0 /   0

     iteration # 13     ecut=    90.00 Ry     beta= 0.20
     Davidson diagonalization with overlap

---- Real-time Memory Report at c_bands before calling an iterative solver
         10670 MiB given to the printing process from OS
         -1894 MiB allocation reported by mallinfo(arena+hblkhd)
        463772 MiB available memory on the node where the printing process lives
     GPU memory used/free/total (MiB): 31445 / 33523 / 64969
------------------
     c_bands:  1 eigenvalues not converged
     ethr =  8.27E-06,  avg # of iterations = 20.0

     negative rho (up, down):  3.834E-02 0.000E+00

     total cpu time spent up to now is       91.4 secs

     total energy              =   -9095.90292030 Ry
     estimated scf accuracy    <       0.03621691 Ry
[tb_dev] Currently allocated     2.41E+01 Mbytes, locked:    0 /   6
[tb_pin] Currently allocated     0.00E+00 Mbytes, locked:    0 /   0

     iteration # 14     ecut=    90.00 Ry     beta= 0.20
     Davidson diagonalization with overlap

---- Real-time Memory Report at c_bands before calling an iterative solver
         10670 MiB given to the printing process from OS
         -1894 MiB allocation reported by mallinfo(arena+hblkhd)
        463771 MiB available memory on the node where the printing process lives
     GPU memory used/free/total (MiB): 31445 / 33523 / 64969
------------------
     ethr =  2.60E-06,  avg # of iterations =  6.0

     negative rho (up, down):  3.892E-02 0.000E+00

     total cpu time spent up to now is       95.2 secs

     total energy              =   -9095.90313149 Ry
     estimated scf accuracy    <       0.01000430 Ry
[tb_dev] Currently allocated     2.41E+01 Mbytes, locked:    0 /   6
[tb_pin] Currently allocated     0.00E+00 Mbytes, locked:    0 /   0

     iteration # 15     ecut=    90.00 Ry     beta= 0.20
     Davidson diagonalization with overlap

---- Real-time Memory Report at c_bands before calling an iterative solver
         10670 MiB given to the printing process from OS
         -1894 MiB allocation reported by mallinfo(arena+hblkhd)
        463962 MiB available memory on the node where the printing process lives
     GPU memory used/free/total (MiB): 31445 / 33523 / 64969
------------------
     ethr =  7.19E-07,  avg # of iterations =  4.0

     negative rho (up, down):  3.941E-02 0.000E+00

     total cpu time spent up to now is       99.1 secs

     total energy              =   -9095.90378641 Ry
     estimated scf accuracy    <       0.00346566 Ry
[tb_dev] Currently allocated     2.41E+01 Mbytes, locked:    0 /   6
[tb_pin] Currently allocated     0.00E+00 Mbytes, locked:    0 /   0

     iteration # 16     ecut=    90.00 Ry     beta= 0.20
     Davidson diagonalization with overlap

---- Real-time Memory Report at c_bands before calling an iterative solver
         10670 MiB given to the printing process from OS
         -1894 MiB allocation reported by mallinfo(arena+hblkhd)
        463771 MiB available memory on the node where the printing process lives
     GPU memory used/free/total (MiB): 31445 / 33523 / 64969
------------------
     ethr =  2.49E-07,  avg # of iterations =  4.0

     negative rho (up, down):  3.954E-02 0.000E+00

     total cpu time spent up to now is      102.9 secs

     total energy              =   -9095.90404348 Ry
     estimated scf accuracy    <       0.00228453 Ry
[tb_dev] Currently allocated     2.41E+01 Mbytes, locked:    0 /   6
[tb_pin] Currently allocated     0.00E+00 Mbytes, locked:    0 /   0

     iteration # 17     ecut=    90.00 Ry     beta= 0.20
     Davidson diagonalization with overlap

---- Real-time Memory Report at c_bands before calling an iterative solver
         10670 MiB given to the printing process from OS
         -1894 MiB allocation reported by mallinfo(arena+hblkhd)
        463962 MiB available memory on the node where the printing process lives
     GPU memory used/free/total (MiB): 31445 / 33523 / 64969
------------------
     ethr =  1.64E-07,  avg # of iterations =  2.0

     negative rho (up, down):  3.969E-02 0.000E+00

     total cpu time spent up to now is      106.4 secs

     total energy              =   -9095.90410668 Ry
     estimated scf accuracy    <       0.00041138 Ry
[tb_dev] Currently allocated     2.41E+01 Mbytes, locked:    0 /   6
[tb_pin] Currently allocated     0.00E+00 Mbytes, locked:    0 /   0

     iteration # 18     ecut=    90.00 Ry     beta= 0.20
     Davidson diagonalization with overlap

---- Real-time Memory Report at c_bands before calling an iterative solver
         10670 MiB given to the printing process from OS
         -1894 MiB allocation reported by mallinfo(arena+hblkhd)
        463772 MiB available memory on the node where the printing process lives
     GPU memory used/free/total (MiB): 31445 / 33523 / 64969
------------------
     ethr =  2.96E-08,  avg # of iterations =  5.0

     negative rho (up, down):  3.978E-02 0.000E+00

     total cpu time spent up to now is      110.6 secs

     total energy              =   -9095.90421291 Ry
     estimated scf accuracy    <       0.00016359 Ry
[tb_dev] Currently allocated     2.41E+01 Mbytes, locked:    0 /   6
[tb_pin] Currently allocated     0.00E+00 Mbytes, locked:    0 /   0

     iteration # 19     ecut=    90.00 Ry     beta= 0.20
     Davidson diagonalization with overlap

---- Real-time Memory Report at c_bands before calling an iterative solver
         10670 MiB given to the printing process from OS
         -1894 MiB allocation reported by mallinfo(arena+hblkhd)
        463820 MiB available memory on the node where the printing process lives
     GPU memory used/free/total (MiB): 31445 / 33523 / 64969
------------------
     ethr =  1.18E-08,  avg # of iterations =  2.0

     negative rho (up, down):  3.985E-02 0.000E+00

     total cpu time spent up to now is      114.1 secs

     total energy              =   -9095.90421685 Ry
     estimated scf accuracy    <       0.00005807 Ry
[tb_dev] Currently allocated     2.41E+01 Mbytes, locked:    0 /   6
[tb_pin] Currently allocated     0.00E+00 Mbytes, locked:    0 /   0

     iteration # 20     ecut=    90.00 Ry     beta= 0.20
     Davidson diagonalization with overlap

---- Real-time Memory Report at c_bands before calling an iterative solver
         10670 MiB given to the printing process from OS
         -1894 MiB allocation reported by mallinfo(arena+hblkhd)
        463767 MiB available memory on the node where the printing process lives
     GPU memory used/free/total (MiB): 31445 / 33523 / 64969
------------------
     ethr =  4.17E-09,  avg # of iterations =  4.0

     negative rho (up, down):  3.991E-02 0.000E+00

     total cpu time spent up to now is      118.0 secs

     total energy              =   -9095.90422738 Ry
     estimated scf accuracy    <       0.00001802 Ry
[tb_dev] Currently allocated     2.41E+01 Mbytes, locked:    0 /   6
[tb_pin] Currently allocated     0.00E+00 Mbytes, locked:    0 /   0

     iteration # 21     ecut=    90.00 Ry     beta= 0.20
     Davidson diagonalization with overlap

---- Real-time Memory Report at c_bands before calling an iterative solver
         10670 MiB given to the printing process from OS
         -1894 MiB allocation reported by mallinfo(arena+hblkhd)
        463767 MiB available memory on the node where the printing process lives
     GPU memory used/free/total (MiB): 31445 / 33523 / 64969
------------------
     ethr =  1.29E-09,  avg # of iterations =  2.0

     negative rho (up, down):  3.994E-02 0.000E+00

     total cpu time spent up to now is      121.6 secs

     total energy              =   -9095.90422842 Ry
     estimated scf accuracy    <       0.00000825 Ry
[tb_dev] Currently allocated     2.41E+01 Mbytes, locked:    0 /   6
[tb_pin] Currently allocated     0.00E+00 Mbytes, locked:    0 /   0

     iteration # 22     ecut=    90.00 Ry     beta= 0.20
     Davidson diagonalization with overlap

---- Real-time Memory Report at c_bands before calling an iterative solver
         10670 MiB given to the printing process from OS
         -1894 MiB allocation reported by mallinfo(arena+hblkhd)
        463766 MiB available memory on the node where the printing process lives
     GPU memory used/free/total (MiB): 31445 / 33523 / 64969
------------------
     ethr =  5.93E-10,  avg # of iterations =  4.0

     negative rho (up, down):  3.996E-02 0.000E+00

     total cpu time spent up to now is      125.5 secs

     total energy              =   -9095.90422990 Ry
     estimated scf accuracy    <       0.00000354 Ry
[tb_dev] Currently allocated     2.41E+01 Mbytes, locked:    0 /   6
[tb_pin] Currently allocated     0.00E+00 Mbytes, locked:    0 /   0

     iteration # 23     ecut=    90.00 Ry     beta= 0.20
     Davidson diagonalization with overlap

---- Real-time Memory Report at c_bands before calling an iterative solver
         10670 MiB given to the printing process from OS
         -1894 MiB allocation reported by mallinfo(arena+hblkhd)
        463766 MiB available memory on the node where the printing process lives
     GPU memory used/free/total (MiB): 31445 / 33523 / 64969
------------------
     ethr =  2.55E-10,  avg # of iterations =  2.0

     negative rho (up, down):  3.998E-02 0.000E+00

     total cpu time spent up to now is      129.3 secs

     total energy              =   -9095.90423033 Ry
     estimated scf accuracy    <       0.00000183 Ry
[tb_dev] Currently allocated     2.41E+01 Mbytes, locked:    0 /   6
[tb_pin] Currently allocated     0.00E+00 Mbytes, locked:    0 /   0

     iteration # 24     ecut=    90.00 Ry     beta= 0.20
     Davidson diagonalization with overlap

---- Real-time Memory Report at c_bands before calling an iterative solver
         10670 MiB given to the printing process from OS
         -1894 MiB allocation reported by mallinfo(arena+hblkhd)
        463766 MiB available memory on the node where the printing process lives
     GPU memory used/free/total (MiB): 31445 / 33523 / 64969
------------------
     ethr =  1.31E-10,  avg # of iterations =  2.0

     negative rho (up, down):  3.999E-02 0.000E+00

     total cpu time spent up to now is      132.9 secs

     total energy              =   -9095.90423035 Ry
     estimated scf accuracy    <       0.00000080 Ry
[tb_dev] Currently allocated     2.41E+01 Mbytes, locked:    0 /   6
[tb_pin] Currently allocated     0.00E+00 Mbytes, locked:    0 /   0

     iteration # 25     ecut=    90.00 Ry     beta= 0.20
     Davidson diagonalization with overlap

---- Real-time Memory Report at c_bands before calling an iterative solver
         10670 MiB given to the printing process from OS
         -1894 MiB allocation reported by mallinfo(arena+hblkhd)
        463766 MiB available memory on the node where the printing process lives
     GPU memory used/free/total (MiB): 31445 / 33523 / 64969
------------------
     ethr =  5.71E-11,  avg # of iterations =  5.0

     negative rho (up, down):  4.000E-02 0.000E+00

     total cpu time spent up to now is      137.0 secs

     total energy              =   -9095.90423060 Ry
     estimated scf accuracy    <       0.00000025 Ry
[tb_dev] Currently allocated     2.41E+01 Mbytes, locked:    0 /   6
[tb_pin] Currently allocated     0.00E+00 Mbytes, locked:    0 /   0

     iteration # 26     ecut=    90.00 Ry     beta= 0.20
     Davidson diagonalization with overlap

---- Real-time Memory Report at c_bands before calling an iterative solver
         10670 MiB given to the printing process from OS
         -1894 MiB allocation reported by mallinfo(arena+hblkhd)
        463766 MiB available memory on the node where the printing process lives
     GPU memory used/free/total (MiB): 31445 / 33523 / 64969
------------------
     ethr =  1.77E-11,  avg # of iterations =  2.0

     negative rho (up, down):  4.001E-02 0.000E+00

     total cpu time spent up to now is      140.6 secs

     total energy              =   -9095.90423062 Ry
     estimated scf accuracy    <       0.00000011 Ry
[tb_dev] Currently allocated     2.41E+01 Mbytes, locked:    0 /   6
[tb_pin] Currently allocated     0.00E+00 Mbytes, locked:    0 /   0

     iteration # 27     ecut=    90.00 Ry     beta= 0.20
     Davidson diagonalization with overlap

---- Real-time Memory Report at c_bands before calling an iterative solver
         10670 MiB given to the printing process from OS
         -1894 MiB allocation reported by mallinfo(arena+hblkhd)
        463766 MiB available memory on the node where the printing process lives
     GPU memory used/free/total (MiB): 31629 / 33339 / 64969
------------------
     ethr =  7.58E-12,  avg # of iterations =  4.0

     negative rho (up, down):  4.004E-02 0.000E+00

     total cpu time spent up to now is      144.2 secs

     End of self-consistent calculation

          k = 0.0000 0.0000 0.0000 (371318 PWs)   bands (ev):

   -72.2709 -72.1916 -72.1811 -72.0585 -72.0542 -72.0536 -71.9689 -71.9437
   -71.9093 -71.8669 -71.8638 -71.8430 -71.8373 -71.8306 -71.8152 -71.7992
   -71.7172 -71.6971 -71.6918 -71.6904 -71.6876 -71.6498 -71.6309 -71.5933
   -46.0186 -45.6491 -45.4027 -45.2551 -45.0838 -45.0700 -44.9911 -44.9803
   -44.9420 -44.9290 -44.9031 -44.8348 -44.8094 -44.8083 -44.8025 -44.7881
   -44.7872 -44.7872 -44.7598 -44.7429 -44.7365 -44.7360 -44.7293 -44.7242
   -44.7170 -44.7054 -44.7025 -44.6948 -44.6943 -44.6884 -44.6875 -44.6752
   -44.6661 -44.6567 -44.6556 -44.6431 -44.6130 -44.6113 -44.6090 -44.6086
   -44.5859 -44.5601 -44.5598 -44.5521 -44.5493 -44.5439 -44.5387 -44.5157
   -44.5123 -44.4985 -44.4773 -44.4673 -44.4455 -44.4428 -44.4335 -44.4325
   -44.4263 -44.4221 -44.4204 -44.4129 -44.4118 -44.4048 -44.4027 -44.3955
   -44.3731 -44.3633 -44.3498 -44.3482 -44.3470 -44.3450 -44.3445 -44.3424
   -44.3368 -44.3362 -44.3289 -44.3211 -44.3189 -44.3169 -44.3148 -44.3025
   -44.2993 -44.2981 -44.2921 -44.2714 -44.2641 -44.2453 -44.2447 -44.2404
   -44.2348 -44.2223 -44.2206 -44.2102 -44.1988 -44.1912 -44.1886 -44.1810
   -44.1775 -44.1589 -44.1479 -44.1375 -44.1115 -44.1108 -44.1018 -44.0969
   -44.0965 -44.0929 -44.0879 -44.0708 -44.0701 -44.0597 -44.0580 -44.0384
   -44.0364 -44.0309 -44.0292 -43.9994 -43.9847 -43.9791 -43.9769 -43.9754
   -43.9681 -43.9666 -43.9582 -43.9529 -43.9297 -43.9211 -43.9182 -43.9148
   -43.9106 -43.9061 -43.9054 -43.9045 -43.8826 -43.8792 -43.8624 -43.8459
   -43.8409 -43.8373 -43.8301 -43.8181 -43.8133 -43.7856 -43.7546 -43.7346
   -43.7328 -43.7273 -43.6992 -43.6909 -43.6817 -43.6764 -43.6755 -43.6659
[...]
     atom  143 type  1   force =     0.00002527    0.00002204    0.00004191
     atom  144 type  1   force =     0.00002288   -0.00000598    0.00004226
     atom  145 type  1   force =     0.00001066    0.00002399    0.00004661
     atom  146 type  1   force =     0.00000848   -0.00001941    0.00003906
     atom  147 type  1   force =     0.00001252    0.00001986    0.00002010
     atom  148 type  1   force =     0.00003029   -0.00000436    0.00001003
     atom  149 type  1   force =     0.00001746   -0.00000520    0.00000642
     atom  150 type  4   force =     0.00000341   -0.00000524    0.00002994
     atom  151 type  2   force =     0.00000207    0.00000439   -0.00000125
     atom  152 type  2   force =     0.00000025    0.00000144   -0.00000034
     atom  153 type  2   force =    -0.00000117   -0.00000318   -0.00000345
     atom  154 type  2   force =     0.00000638    0.00000139   -0.00000328
     atom  155 type  2   force =     0.00000078    0.00000030    0.00000212
     atom  156 type  2   force =    -0.00000536    0.00000392   -0.00000143
     atom  157 type  2   force =    -0.00000398    0.00000172   -0.00000224
     atom  158 type  2   force =     0.00000479   -0.00000377    0.00000008
     atom  159 type  2   force =     0.00000317    0.00000331   -0.00000167
     atom  160 type  2   force =     0.00000493    0.00000139   -0.00000157
     atom  161 type  2   force =    -0.00000399   -0.00000041   -0.00000177
     atom  162 type  2   force =    -0.00000183   -0.00000281   -0.00000270
     atom  163 type  2   force =     0.00000056   -0.00000022   -0.00000503
     atom  164 type  2   force =    -0.00000293   -0.00000335   -0.00000941
     atom  165 type  3   force =     0.00003813    0.00001463   -0.00005984
     atom  166 type  3   force =     0.00001578    0.00001400    0.00000372
     atom  167 type  1   force =     0.00001302    0.00001524   -0.00002764
     atom  168 type  1   force =     0.00002568    0.00000562    0.00000752
     atom  169 type  1   force =     0.00000768    0.00001319   -0.00001817
     atom  170 type  1   force =     0.00001181    0.00000923   -0.00001582
     atom  171 type  1   force =     0.00001068    0.00001123   -0.00000592
     atom  172 type  1   force =     0.00003217    0.00004158   -0.00004396
     atom  173 type  1   force =     0.00003403   -0.00000723   -0.00002520
     atom  174 type  1   force =     0.00001047    0.00001272   -0.00002570
     atom  175 type  4   force =     0.00000362    0.00000142   -0.00002569
     atom  176 type  2   force =    -0.00000391    0.00000482   -0.00000694
     atom  177 type  2   force =     0.00001244   -0.00000268    0.00000279
     atom  178 type  2   force =    -0.00000014    0.00000338    0.00000274
     atom  179 type  2   force =     0.00000159   -0.00000177    0.00000319
     atom  180 type  2   force =    -0.00000744   -0.00000316    0.00000909
     atom  181 type  2   force =    -0.00000380    0.00000425    0.00000096
     atom  182 type  2   force =    -0.00000018   -0.00000676    0.00000028
     atom  183 type  2   force =     0.00000647    0.00000008    0.00000477
     atom  184 type  2   force =    -0.00000069    0.00000747   -0.00000006
     atom  185 type  2   force =     0.00000403    0.00000532    0.00000296
     atom  186 type  2   force =     0.00000249   -0.00000036    0.00001353
     atom  187 type  2   force =    -0.00000379    0.00000115    0.00000442
     atom  188 type  2   force =     0.00000128    0.00000361    0.00000941
     atom  189 type  2   force =    -0.00000062   -0.00000144    0.00000562
     atom  190 type  3   force =     0.00007612   -0.00002104    0.00000980
     atom  191 type  3   force =    -0.00001070   -0.00003423    0.00004525
     atom  192 type  1   force =     0.00004014   -0.00000151    0.00001765
     atom  193 type  1   force =     0.00001764    0.00000613    0.00001330
     atom  194 type  1   force =    -0.00000104   -0.00000139    0.00004136
     atom  195 type  1   force =     0.00000500    0.00000771    0.00002785
     atom  196 type  1   force =     0.00003231    0.00002800    0.00003042
     atom  197 type  1   force =     0.00000950   -0.00001966    0.00003456
     atom  198 type  1   force =     0.00001332    0.00003356    0.00001624
     atom  199 type  1   force =     0.00000160    0.00001178    0.00003540
     atom  200 type  4   force =     0.00000491   -0.00000002    0.00002353
     atom  201 type  2   force =     0.00000164   -0.00000035    0.00000276
     atom  202 type  2   force =    -0.00000203    0.00000093    0.00000389
     atom  203 type  2   force =     0.00000207   -0.00000407    0.00000337
     atom  204 type  2   force =    -0.00000133    0.00000389   -0.00000440
     atom  205 type  2   force =     0.00000334    0.00000256    0.00000221
     atom  206 type  2   force =     0.00000009    0.00000726    0.00000027
     atom  207 type  2   force =    -0.00000066    0.00000690   -0.00000483
     atom  208 type  2   force =    -0.00000330   -0.00000372   -0.00000911
     atom  209 type  2   force =    -0.00000224    0.00000210   -0.00000531
     atom  210 type  2   force =    -0.00000575    0.00000060   -0.00000632
     atom  211 type  2   force =     0.00000220   -0.00000048   -0.00000340
     atom  212 type  2   force =     0.00000103    0.00000578   -0.00000414
     atom  213 type  2   force =     0.00000027    0.00000150   -0.00000360
     atom  214 type  2   force =     0.00000448   -0.00000183   -0.00000461
     atom  215 type  3   force =    -0.00000920   -0.00003462   -0.00000088
     atom  216 type  3   force =    -0.00000925    0.00005025    0.00001938
     atom  217 type  1   force =    -0.00002692   -0.00003224   -0.00000660
     atom  218 type  1   force =    -0.00001662   -0.00000869   -0.00002184
     atom  219 type  1   force =     0.00002687    0.00001402    0.00000942
     atom  220 type  1   force =    -0.00000400    0.00001688    0.00000415
     atom  221 type  1   force =    -0.00001999   -0.00001200    0.00000949
     atom  222 type  1   force =     0.00001169    0.00001276   -0.00000410
     atom  223 type  1   force =    -0.00003393   -0.00000049   -0.00000278
     atom  224 type  1   force =     0.00000125    0.00001433   -0.00002189
     atom  225 type  4   force =     0.00000580    0.00001209   -0.00002044
     atom  226 type  2   force =    -0.00000021   -0.00000723    0.00000401
     atom  227 type  2   force =    -0.00000646   -0.00000036    0.00000440
     atom  228 type  2   force =    -0.00000732   -0.00000081    0.00000953
     atom  229 type  2   force =     0.00000036   -0.00000145   -0.00000664
     atom  230 type  2   force =     0.00000351   -0.00000353   -0.00000550
     atom  231 type  2   force =    -0.00000019    0.00000195   -0.00000427
     atom  232 type  2   force =     0.00000273    0.00000079    0.00000076
     atom  233 type  2   force =    -0.00000144   -0.00000066    0.00000593
     atom  234 type  2   force =     0.00000106   -0.00000239    0.00000419
     atom  235 type  2   force =    -0.00000098   -0.00000427    0.00000499
     atom  236 type  2   force =     0.00000338   -0.00000122    0.00000326
     atom  237 type  2   force =    -0.00000252    0.00000487    0.00001015
     atom  238 type  2   force =     0.00000421    0.00000571    0.00000375
     atom  239 type  2   force =     0.00000427    0.00000418    0.00001117
     atom  240 type  3   force =    -0.00001256   -0.00007573   -0.00000950
     atom  241 type  3   force =    -0.00003124    0.00002961    0.00001398
     atom  242 type  1   force =    -0.00004231   -0.00001511   -0.00000621
     atom  243 type  1   force =    -0.00000969   -0.00001287    0.00003850
     atom  244 type  1   force =     0.00002718    0.00001603    0.00002602
     atom  245 type  1   force =     0.00000237   -0.00000042    0.00002927
     atom  246 type  1   force =    -0.00002231   -0.00000275    0.00002112
     atom  247 type  1   force =     0.00001639    0.00002917   -0.00001667
     atom  248 type  1   force =    -0.00000690   -0.00003807   -0.00001679
     atom  249 type  1   force =    -0.00000541    0.00000646    0.00002838
     atom  250 type  4   force =     0.00002235    0.00002776    0.00002922
     atom  251 type  2   force =     0.00000032    0.00000250    0.00000517
     atom  252 type  2   force =    -0.00000235    0.00000148    0.00000454
     atom  253 type  2   force =     0.00000296   -0.00000222    0.00000618
     atom  254 type  2   force =    -0.00000164   -0.00000509   -0.00000129
     atom  255 type  2   force =     0.00000464   -0.00000128   -0.00000712
     atom  256 type  2   force =     0.00000791   -0.00000719   -0.00000600
     atom  257 type  2   force =     0.00000378    0.00000038   -0.00000326
     atom  258 type  2   force =    -0.00000757   -0.00000585   -0.00000778
     atom  259 type  2   force =     0.00000141   -0.00000271   -0.00000875
     atom  260 type  2   force =    -0.00000326   -0.00000230    0.00000166
     atom  261 type  2   force =     0.00000344   -0.00000193   -0.00000364
     atom  262 type  2   force =     0.00000214   -0.00000085    0.00000407
     atom  263 type  2   force =     0.00000601   -0.00000168   -0.00000114
     atom  264 type  2   force =     0.00000363    0.00000303   -0.00000093
     atom  265 type  3   force =    -0.00000834   -0.00000092    0.00003749
     atom  266 type  3   force =     0.00001838    0.00005199   -0.00002815
     atom  267 type  1   force =    -0.00003744   -0.00001891   -0.00000245
     atom  268 type  1   force =    -0.00001107   -0.00001014   -0.00001739
     atom  269 type  1   force =     0.00003256    0.00001312   -0.00001139
     atom  270 type  1   force =     0.00000667    0.00001279    0.00000306
     atom  271 type  1   force =    -0.00001621   -0.00002388    0.00000228
     atom  272 type  1   force =     0.00001467    0.00000738   -0.00000599
     atom  273 type  1   force =    -0.00000350   -0.00001546   -0.00000749
     atom  274 type  1   force =     0.00001680    0.00000348   -0.00002861
     atom  275 type  4   force =     0.00002420    0.00000745   -0.00001555
     atom  276 type  2   force =    -0.00000195   -0.00000276    0.00000709
     atom  277 type  2   force =     0.00000467   -0.00000196    0.00000335
     atom  278 type  2   force =     0.00000369   -0.00000301    0.00000666
     atom  279 type  2   force =     0.00000793    0.00000581    0.00000399
     atom  280 type  2   force =    -0.00000632    0.00000047   -0.00000206
     atom  281 type  2   force =    -0.00000555    0.00001188   -0.00000448
     atom  282 type  2   force =     0.00000616   -0.00000038    0.00000918
     atom  283 type  2   force =    -0.00000635    0.00000242    0.00000411
     atom  284 type  2   force =    -0.00000542   -0.00000221    0.00000583
     atom  285 type  2   force =    -0.00000112    0.00000108   -0.00000168
     atom  286 type  2   force =     0.00000384    0.00000424   -0.00000087
     atom  287 type  2   force =     0.00000711    0.00000158    0.00000456
     atom  288 type  2   force =     0.00000973   -0.00000480    0.00000825
     atom  289 type  2   force =     0.00000508   -0.00000122    0.00000323
     atom  290 type  3   force =     0.00000978   -0.00004979   -0.00003667
     atom  291 type  3   force =    -0.00000293    0.00008552    0.00005678
     atom  292 type  1   force =     0.00001131   -0.00002470    0.00000845
     atom  293 type  1   force =    -0.00001255   -0.00001073   -0.00001526
     atom  294 type  1   force =     0.00000974    0.00003526    0.00002080
     atom  295 type  1   force =     0.00003473   -0.00000435    0.00002219
     atom  296 type  1   force =     0.00000163    0.00000486    0.00003705
     atom  297 type  1   force =    -0.00000595   -0.00003181   -0.00000309
     atom  298 type  1   force =    -0.00002031    0.00000762   -0.00000042
     atom  299 type  1   force =     0.00001829    0.00002261    0.00003952
     atom  300 type  4   force =     0.00003317    0.00000436    0.00002905

     Total force =     1.044895     Total SCF correction =     0.000497


     Computing stress (Cartesian axis) and pressure


     negative rho (up, down):  4.004E-02 0.000E+00
          total   stress  (Ry/bohr**3)                   (kbar)     P=        5.67
   0.00005454  -0.00000208  -0.00000744            8.02       -0.31       -1.09
  -0.00000208   0.00008391   0.00000760           -0.31       12.34        1.12
  -0.00000744   0.00000760  -0.00002289           -1.09        1.12       -3.37

     kinetic stress (kbar)   5336.15      0.11      0.30
                                0.11   5338.32      0.82
                                0.30      0.82   5327.23

     local   stress (kbar)-648001.80     68.47    155.24
                               68.47-648079.37   -129.88
                              155.24   -129.88 641695.76

     nonloc. stress (kbar)    958.32      0.04      0.54
                                0.04    957.50     -0.22
                                0.54     -0.22    954.70

     hartree stress (kbar) 324624.67    -26.44    -53.59
                              -26.44 324635.29     56.16
                              -53.59     56.16-318767.42

     exc-cor stress (kbar)  -1264.28     -0.07     -0.25
                               -0.07  -1263.95      0.06
                               -0.25      0.06  -1266.33

     corecor stress (kbar)   -292.87      0.00      0.01
                                0.00   -292.89     -0.00
                                0.01     -0.00   -292.75

     ewald   stress (kbar) 318647.84    -42.42   -103.34
                              -42.42 318717.44     74.18
                             -103.34     74.18-327654.57

     hubbard stress (kbar)      0.00      0.00      0.00
                                0.00      0.00      0.00
                                0.00      0.00      0.00

     DFT-D   stress (kbar)      0.00      0.00      0.00
                                0.00      0.00      0.00
                                0.00      0.00      0.00

     XDM     stress (kbar)      0.00      0.00      0.00
                                0.00      0.00      0.00
                                0.00      0.00      0.00

     dft-nl  stress (kbar)      0.00      0.00      0.00
                                0.00      0.00      0.00
                                0.00      0.00      0.00

     TS-vdW  stress (kbar)      0.00      0.00      0.00
                                0.00      0.00      0.00
                                0.00      0.00      0.00

     MDB     stress (kbar)      0.00      0.00      0.00
                                0.00      0.00      0.00
                                0.00      0.00      0.00

     3D-RISM stress (kbar)      0.00      0.00      0.00
                                0.00      0.00      0.00
                                0.00      0.00      0.00


     Writing all to output data dir ./tmp/pwscf.save/
 
     init_run     :     32.03s CPU     36.80s WALL (       1 calls)
     electrons    :    100.84s CPU    107.16s WALL (       1 calls)
     forces       :      3.12s CPU      3.37s WALL (       1 calls)
     stress       :     81.08s CPU     83.53s WALL (       1 calls)

     Called by init_run:
     wfcinit      :      3.46s CPU      5.40s WALL (       1 calls)
                                        5.40s GPU  (       1 calls)
     wfcinit:atom :      0.01s CPU      0.01s WALL (       1 calls)
                                        0.01s GPU  (       1 calls)
     wfcinit:wfcr :      1.26s CPU      2.41s WALL (       1 calls)
                                        2.41s GPU  (       1 calls)
     potinit      :     18.66s CPU     18.92s WALL (       1 calls)
     hinit0       :      7.55s CPU      7.77s WALL (       1 calls)

     Called by electrons:
     c_bands      :     62.12s CPU     63.72s WALL (      27 calls)
     sum_band     :     14.69s CPU     15.06s WALL (      27 calls)
     v_of_rho     :      3.04s CPU      3.18s WALL (      28 calls)
     v_h          :      1.66s CPU      1.73s WALL (      28 calls)
     v_xc         :      1.51s CPU      1.58s WALL (      30 calls)
     newd         :      2.36s CPU      4.55s WALL (      28 calls)
                                        4.55s GPU  (      28 calls)
     PAW_pot      :      3.05s CPU      3.07s WALL (      28 calls)
     mix_rho      :      7.36s CPU      7.66s WALL (      27 calls)

     Called by c_bands:
     init_us_2    :      0.41s CPU      0.59s WALL (      55 calls)
     init_us_2:gp :      0.41s CPU      0.59s WALL (      55 calls)
     regterg      :     53.58s CPU     54.97s WALL (      28 calls)

     Called by sum_band:
     sum_band:wei :      0.01s CPU      0.01s WALL (      27 calls)
                                        0.01s GPU  (      27 calls)
     sum_band:loo :     11.52s CPU     11.81s WALL (      27 calls)
                                       11.81s GPU  (      27 calls)
     sum_band:buf :      1.75s CPU      1.77s WALL (      27 calls)
                                        1.77s GPU  (      27 calls)
     sum_band:ini :      0.20s CPU      0.43s WALL (      27 calls)
                                        0.43s GPU  (      27 calls)
     sum_band:cal :      1.88s CPU      1.95s WALL (      27 calls)
                                        1.95s GPU  (      27 calls)
     sum_band:bec :      0.19s CPU      0.19s WALL (      27 calls)
                                        0.19s GPU  (      27 calls)
     addusdens    :      1.93s CPU      1.98s WALL (      27 calls)
                                        1.98s GPU  (      27 calls)
     addusd:skk   :      0.41s CPU      0.42s WALL (     108 calls)
                                        0.42s GPU  (     108 calls)

     Called by *egterg:
     rdiaghg      :      4.43s CPU      4.53s WALL (     176 calls)
                                        4.53s GPU  (     176 calls)
     regterg:over :      3.18s CPU      3.25s WALL (     148 calls)
     regterg:upda :      1.70s CPU      1.72s WALL (     148 calls)
     regterg:last :      3.68s CPU      3.71s WALL (      59 calls)
     h_psi        :     35.17s CPU     37.33s WALL (     177 calls)
                                       37.33s GPU  (     177 calls)
     s_psi        :      0.91s CPU      4.29s WALL (     177 calls)
                                        4.16s GPU  (     177 calls)
     g_psi        :      0.00s CPU      0.18s WALL (     148 calls)
                                        0.17s GPU  (     148 calls)

     Called by h_psi:
     h_psi:calbec :      5.17s CPU      5.43s WALL (     177 calls)
                                        5.42s GPU  (     177 calls)
     vloc_psi     :     26.14s CPU     27.43s WALL (     177 calls)
                                       27.43s GPU  (     177 calls)
     add_vuspsi   :      0.37s CPU      4.29s WALL (     177 calls)
                                        4.28s GPU  (     177 calls)

     General routines
     calbec       :      7.44s CPU      7.95s WALL (     209 calls)
     fft          :      5.53s CPU      7.18s WALL (     326 calls)
                                        0.77s GPU  (     298 calls)
     ffts         :      2.83s CPU      3.33s WALL (      55 calls)
                                        0.04s GPU  (      27 calls)
     fftw         :     15.78s CPU     26.82s WALL (   15078 calls)
                                       26.67s GPU  (   15078 calls)
     interpolate  :      8.84s CPU     10.84s WALL (      28 calls)
 
     Parallel routines

     PAW routines
     PAW_pot      :      3.05s CPU      3.07s WALL (      28 calls)
 
     PWSCF        :   3m39.45s CPU   3m58.41s WALL

 
   This run was terminated on:  14: 8:21  30Dec2023            

=------------------------------------------------------------------------------=
   JOB DONE.
=------------------------------------------------------------------------------=
